                         Program Version 5.0.4 -  RELEASE  -
|  1> ! SP PBE0 RIJCOSX D3BJ def2-TZVP def2/J
|  2> %output
|  3> xyzfile=True
|  4> end
|  5> %scf
|  6> maxiter 250
|  7> end
|  8> %output
|  9> Print[P_Hirshfeld] = 1
| 10> end
| 11> % maxcore
| 12> 4000
| 13> *xyz 0 1
| 14> C   -0.89353769  -1.25271019  -0.18340425
| 15> C    0.42494081  -1.46804626  -0.25625112
| 16> C    1.44734205  -0.37789261  -0.12257713
| 17> C    0.82378915   1.00985890  -0.23755915
| 18> C   -0.46060806   1.09930860   0.57881413
| 19> C   -1.49577724   0.09685428   0.07712475
| 20> H   -1.58145254  -2.09498442  -0.31593342
| 21> H    0.79252262  -2.48625525  -0.42454348
| 22> H    2.23365611  -0.51073476  -0.88535875
| 23> H    1.96772079  -0.48407572   0.84868391
| 24> H    0.59056314   1.21477355  -1.29738234
| 25> H    1.54407023   1.78075937   0.07889566
| 26> H   -0.87219223   2.12061058   0.55161774
| 27> H   -0.22943988   0.88224808   1.63671070
| 28> H   -2.32172376   0.00077432   0.80262225
| 29> H   -1.96977354   0.46941155  -0.85125947
| 30> *
| 31>
| 32>                          ****END OF INPUT****

CARTESIAN COORDINATES (ANGSTROEM)
---------------------------------
  C     -0.893538   -1.252710   -0.183404
  C      0.424941   -1.468046   -0.256251
  C      1.447342   -0.377893   -0.122577
  C      0.823789    1.009859   -0.237559
  C     -0.460608    1.099309    0.578814
  C     -1.495777    0.096854    0.077125
  H     -1.581453   -2.094984   -0.315933
  H      0.792523   -2.486255   -0.424543
  H      2.233656   -0.510735   -0.885359
  H      1.967721   -0.484076    0.848684
  H      0.590563    1.214774   -1.297382
  H      1.544070    1.780759    0.078896
  H     -0.872192    2.120611    0.551618
  H     -0.229440    0.882248    1.636711
  H     -2.321724    0.000774    0.802622
  H     -1.969774    0.469412   -0.851259

 Total Charge           Charge          ....    0
 Multiplicity           Mult            ....    1
 Number of Electrons    NEL             ....   46
 Basis Dimension        Dim             ....  246

ORBITAL ENERGIES
----------------

  NO   OCC          E(Eh)            E(eV)
   0   2.0000     -10.218988      -278.0728
   1   2.0000     -10.218969      -278.0723
   2   2.0000     -10.215522      -277.9785
   3   2.0000     -10.215273      -277.9717
   4   2.0000     -10.215120      -277.9675
   5   2.0000     -10.214224      -277.9432
   6   2.0000      -0.856691       -23.3117
   7   2.0000      -0.761841       -20.7308
   8   2.0000      -0.759702       -20.6725
   9   2.0000      -0.634433       -17.2638
  10   2.0000      -0.613546       -16.6954
  11   2.0000      -0.522048       -14.2056
  12   2.0000      -0.506726       -13.7887
  13   2.0000      -0.456909       -12.4331
  14   2.0000      -0.436925       -11.8893
  15   2.0000      -0.418720       -11.3940
  16   2.0000      -0.400301       -10.8927
  17   2.0000      -0.390282       -10.6201
  18   2.0000      -0.388506       -10.5718
  19   2.0000      -0.334335        -9.0977
  20   2.0000      -0.325637        -8.8610
  21   2.0000      -0.313526        -8.5315
  22   2.0000      -0.250536        -6.8174
  23   0.0000       0.021855         0.5947
  24   0.0000       0.045627         1.2416
  25   0.0000       0.075291         2.0488
  26   0.0000       0.081196         2.2095
  27   0.0000       0.087204         2.3729

MULLIKEN ATOMIC CHARGES
-----------------------
   0 C :   -0.186527
   1 C :   -0.187529
   2 C :   -0.139566
   3 C :   -0.193977
   4 C :   -0.193885
   5 C :   -0.140070
   6 H :    0.108947
   7 H :    0.109067
   8 H :    0.108521
   9 H :    0.100825
  10 H :    0.094910
  11 H :    0.107592
  12 H :    0.107628
  13 H :    0.094695
  14 H :    0.108493
  15 H :    0.100875
Sum of atomic charges:    0.0000000

LOEWDIN ATOMIC CHARGES
----------------------
   0 C :   -0.180948
   1 C :   -0.180980
   2 C :   -0.262105
   3 C :   -0.263489
   4 C :   -0.263461
   5 C :   -0.262074
   6 H :    0.140548
   7 H :    0.140556
   8 H :    0.143355
   9 H :    0.145223
  10 H :    0.141676
  11 H :    0.135740
  12 H :    0.135745
  13 H :    0.141647
  14 H :    0.143339
  15 H :    0.145229

  Mayer bond orders larger than 0.100000
B(  0-C ,  1-C ) :   1.9476 B(  0-C ,  5-C ) :   1.0128 B(  0-C ,  6-H ) :   0.9557
B(  1-C ,  2-C ) :   1.0130 B(  1-C ,  7-H ) :   0.9557 B(  2-C ,  3-C ) :   1.0366
B(  2-C ,  8-H ) :   0.9489 B(  2-C ,  9-H ) :   0.9361 B(  3-C ,  4-C ) :   0.9970
B(  3-C , 10-H ) :   0.9596 B(  3-C , 11-H ) :   0.9577 B(  4-C ,  5-C ) :   1.0370
B(  4-C , 12-H ) :   0.9579 B(  4-C , 13-H ) :   0.9594 B(  5-C , 14-H ) :   0.9489
B(  5-C , 15-H ) :   0.9360

Dispersion correction           -0.011880239
FINAL SINGLE POINT ENERGY      -234.451003692028

DIPOLE MOMENT
-------------
                                X             Y             Z
Electronic contribution:     -0.31480      -1.82634      -0.29459
Nuclear contribution   :      0.33776       1.95907       0.31589
                        -----------------------------------------
Total Dipole Moment    :      0.02296       0.13273       0.02130
                        -----------------------------------------
Magnitude (a.u.)       :      0.13638
Magnitude (Debye)      :      0.34664

Rotational constants in cm-1:     0.158721     0.152082     0.085600
Rotational constants in MHz :  4758.349743  4559.297049  2566.210063

                             ****ORCA TERMINATED NORMALLY****
TOTAL RUN TIME: 0 days 0 hours 1 minutes 30 seconds 321 msec
