                         Program Version 5.0.4 -  RELEASE  -
|  1> ! SP PBE0 RIJCOSX D3BJ def2-TZVP def2/J
|  2> %output
|  3> xyzfile=True
|  4> end
|  5> %scf
|  6> maxiter 250
|  7> end
|  8> %output
|  9> Print[P_Hirshfeld] = 1
| 10> end
| 11> % maxcore
| 12> 4000
| 13> *xyz 0 1
| 14> C    1.84441041  -0.09426605  -0.10897394
| 15> C    0.60949127   0.38579148   0.09226231
| 16> C   -0.60948449  -0.38583918  -0.09229508
| 17> C   -1.84438072   0.09425615   0.10894849
| 18> H    2.73216136   0.52395637   0.04287237
| 19> H    2.00587448  -1.12707810  -0.43379978
| 20> H    0.48264861   1.42561548   0.41757161
| 21> H   -0.48267416  -1.42566819  -0.41760124
| 22> H   -2.73222511  -0.52384424  -0.04285837
| 23> H   -2.00582165   1.12707627   0.43377363
| 24> *
| 25>
| 26>                          ****END OF INPUT****

CARTESIAN COORDINATES (ANGSTROEM)
---------------------------------
  C      1.844410   -0.094266   -0.108974
  C      0.609491    0.385791    0.092262
  C     -0.609484   -0.385839   -0.092295
  C     -1.844381    0.094256    0.108948
  H      2.732161    0.523956    0.042872
  H      2.005874   -1.127078   -0.433800
  H      0.482649    1.425615    0.417572
  H     -0.482674   -1.425668   -0.417601
  H     -2.732225   -0.523844   -0.042858
  H     -2.005822    1.127076    0.433774

 Total Charge           Charge          ....    0
 Multiplicity           Mult            ....    1
 Number of Electrons    NEL             ....   30
 Basis Dimension        Dim             ....  160

ORBITAL ENERGIES
----------------

  NO   OCC          E(Eh)            E(eV)
   0   2.0000     -10.234561      -278.4966
   1   2.0000     -10.234178      -278.4861
   2   2.0000     -10.225242      -278.2430
   3   2.0000     -10.225235      -278.2428
   4   2.0000      -0.832795       -22.6615
   5   2.0000      -0.757935       -20.6245
   6   2.0000      -0.624979       -17.0065
   7   2.0000      -0.569111       -15.4863
   8   2.0000      -0.482877       -13.1397
   9   2.0000      -0.478250       -13.0139
  10   2.0000      -0.408387       -11.1128
  11   2.0000      -0.398782       -10.8514
  12   2.0000      -0.357987        -9.7413
  13   2.0000      -0.343446        -9.3456
  14   2.0000      -0.249904        -6.8002
  15   0.0000      -0.033102        -0.9008
  16   0.0000       0.059969         1.6318
  17   0.0000       0.071610         1.9486
  18   0.0000       0.080181         2.1818
  19   0.0000       0.085422         2.3244

MULLIKEN ATOMIC CHARGES
-----------------------
   0 C :   -0.279805
   1 C :   -0.081902
   2 C :   -0.081910
   3 C :   -0.279793
   4 H :    0.131151
   5 H :    0.123537
   6 H :    0.107013
   7 H :    0.107014
   8 H :    0.131159
   9 H :    0.123535
Sum of atomic charges:    0.0000000

LOEWDIN ATOMIC CHARGES
----------------------
   0 C :   -0.201389
   1 C :   -0.196874
   2 C :   -0.196874
   3 C :   -0.201387
   4 H :    0.125162
   5 H :    0.125300
   6 H :    0.147802
   7 H :    0.147802
   8 H :    0.125158
   9 H :    0.125300

  Mayer bond orders larger than 0.100000
B(  0-C ,  1-C ) :   1.8713 B(  0-C ,  3-C ) :   0.1148 B(  0-C ,  4-H ) :   0.9564
B(  0-C ,  5-H ) :   0.9555 B(  1-C ,  2-C ) :   1.0776 B(  1-C ,  6-H ) :   0.9498
B(  2-C ,  3-C ) :   1.8713 B(  2-C ,  7-H ) :   0.9498 B(  3-C ,  8-H ) :   0.9564
B(  3-C ,  9-H ) :   0.9555

Dispersion correction           -0.005354837
FINAL SINGLE POINT ENERGY      -155.853463070155

DIPOLE MOMENT
-------------
                                X             Y             Z
Electronic contribution:      0.00005      -0.00012      -0.00004
Nuclear contribution   :     -0.00008       0.00012       0.00004
                        -----------------------------------------
Total Dipole Moment    :     -0.00002       0.00000       0.00000
                        -----------------------------------------
Magnitude (a.u.)       :      0.00002
Magnitude (Debye)      :      0.00006

Rotational constants in cm-1:     1.401460     0.147269     0.133265
Rotational constants in MHz : 42014.712664  4415.020667  3995.194708

                             ****ORCA TERMINATED NORMALLY****
TOTAL RUN TIME: 0 days 0 hours 0 minutes 33 seconds 752 msec
