                         Program Version 5.0.4 -  RELEASE  -
|  1> ! SP PBE0 RIJCOSX D3BJ def2-TZVP def2/J
|  2> %output
|  3> xyzfile=True
|  4> end
|  5> %scf
|  6> maxiter 250
|  7> end
|  8> %output
|  9> Print[P_Hirshfeld] = 1
| 10> end
| 11> % maxcore
| 12> 4000
| 13> *xyz 0 1
| 14> C    0.66404200   0.03918274   0.01041237
| 15> C   -0.66404124  -0.03918116  -0.01037914
| 16> H    1.29227049  -0.85634231   0.04054684
| 17> H    1.18336413   1.00232672  -0.00151501
| 18> H   -1.29227447   0.85634091  -0.04051237
| 19> H   -1.18336091  -1.00232690   0.00154731
| 20> *
| 21>
| 22>                          ****END OF INPUT****

CARTESIAN COORDINATES (ANGSTROEM)
---------------------------------
  C      0.664042    0.039183    0.010412
  C     -0.664041   -0.039181   -0.010379
  H      1.292270   -0.856342    0.040547
  H      1.183364    1.002327   -0.001515
  H     -1.292274    0.856341   -0.040512
  H     -1.183361   -1.002327    0.001547

 Total Charge           Charge          ....    0
 Multiplicity           Mult            ....    1
 Number of Electrons    NEL             ....   16
 Basis Dimension        Dim             ....   86

ORBITAL ENERGIES
----------------

  NO   OCC          E(Eh)            E(eV)
   0   2.0000     -10.225477      -278.2494
   1   2.0000     -10.224527      -278.2235
   2   2.0000      -0.784198       -21.3391
   3   2.0000      -0.595914       -16.2156
   4   2.0000      -0.482851       -13.1390
   5   2.0000      -0.434082       -11.8120
   6   2.0000      -0.365590        -9.9482
   7   2.0000      -0.289421        -7.8755
   8   0.0000       0.003531         0.0961
   9   0.0000       0.076565         2.0834
  10   0.0000       0.098838         2.6895
  11   0.0000       0.101330         2.7573
  12   0.0000       0.162660         4.4262

MULLIKEN ATOMIC CHARGES
-----------------------
   0 C :   -0.253623
   1 C :   -0.253618
   2 H :    0.126778
   3 H :    0.126844
   4 H :    0.126776
   5 H :    0.126843
Sum of atomic charges:    0.0000000

LOEWDIN ATOMIC CHARGES
----------------------
   0 C :   -0.245305
   1 C :   -0.245305
   2 H :    0.122654
   3 H :    0.122651
   4 H :    0.122654
   5 H :    0.122651

  Mayer bond orders larger than 0.100000
B(  0-C ,  1-C ) :   2.0099 B(  0-C ,  2-H ) :   0.9550 B(  0-C ,  3-H ) :   0.9550
B(  1-C ,  4-H ) :   0.9550 B(  1-C ,  5-H ) :   0.9550

Dispersion correction           -0.001899653
FINAL SINGLE POINT ENERGY       -78.513931987215

DIPOLE MOMENT
-------------
                                X             Y             Z
Electronic contribution:      0.00000       0.00000      -0.00000
Nuclear contribution   :     -0.00000      -0.00000       0.00000
                        -----------------------------------------
Total Dipole Moment    :     -0.00000      -0.00000       0.00000
                        -----------------------------------------
Magnitude (a.u.)       :      0.00000
Magnitude (Debye)      :      0.00000

Rotational constants in cm-1:     4.821946     1.001475     0.829248
Rotational constants in MHz : 144558.312007 30023.457518 24860.215170

                             ****ORCA TERMINATED NORMALLY****
TOTAL RUN TIME: 0 days 0 hours 0 minutes 7 seconds 393 msec
