                         Program Version 5.0.4 -  RELEASE  -
|  1> ! SP PBE0 RIJCOSX D3BJ def2-TZVP def2/J
|  2> %geom
|  3> modify_internal
|  4> { B 2 3 A } end
|  5> end
|  6> %geom
|  7> modify_internal
|  8> { B 4 5 A } end
|  9> end
| 10> %output
| 11> xyzfile=True
| 12> end
| 13> %scf
| 14> maxiter 250
| 15> end
| 16> %output
| 17> Print[P_Hirshfeld] = 1
| 18> end
| 19> % maxcore
| 20> 4000
| 21> *xyz 0 1
| 22> C   -0.84961654  -1.37818011   0.18263566
| 23> C    0.53380910  -1.53894497  -0.04153931
| 24> C    1.25934195  -0.64381662  -0.79244594
| 25> C    0.91383138   1.30887913   0.37281319
| 26> C   -0.43651238   1.46416032   0.59318580
| 27> C   -1.55271660  -0.31611608  -0.33644612
| 28> H   -1.31921900  -1.99602103   0.95488939
| 29> H    1.07019777  -2.27360921   0.56778513
| 30> H    0.79043804  -0.08773980  -1.60535976
| 31> H    2.34783675  -0.72733364  -0.85250153
| 32> H    1.40890069   1.86525662  -0.42689525
| 33> H    1.56511142   0.95056608   1.17149514
| 34> H   -1.02164898   2.14526588  -0.02963802
| 35> H   -0.86629244   1.22990476   1.56836349
| 36> H   -2.59540904  -0.15191248  -0.05149396
| 37> H   -1.24799212   0.14955113  -1.27460791
| 38> *
| 39>
| 40>                          ****END OF INPUT****

CARTESIAN COORDINATES (ANGSTROEM)
---------------------------------
  C     -0.849617   -1.378180    0.182636
  C      0.533809   -1.538945   -0.041539
  C      1.259342   -0.643817   -0.792446
  C      0.913831    1.308879    0.372813
  C     -0.436512    1.464160    0.593186
  C     -1.552717   -0.316116   -0.336446
  H     -1.319219   -1.996021    0.954889
  H      1.070198   -2.273609    0.567785
  H      0.790438   -0.087740   -1.605360
  H      2.347837   -0.727334   -0.852502
  H      1.408901    1.865257   -0.426895
  H      1.565111    0.950566    1.171495
  H     -1.021649    2.145266   -0.029638
  H     -0.866292    1.229905    1.568363
  H     -2.595409   -0.151912   -0.051494
  H     -1.247992    0.149551   -1.274608

 Total Charge           Charge          ....    0
 Multiplicity           Mult            ....    1
 Number of Electrons    NEL             ....   46
 Basis Dimension        Dim             ....  246

ORBITAL ENERGIES
----------------

  NO   OCC          E(Eh)            E(eV)
   0   2.0000     -10.229309      -278.3536
   1   2.0000     -10.229244      -278.3519
   2   2.0000     -10.223303      -278.1902
   3   2.0000     -10.222628      -278.1718
   4   2.0000     -10.218693      -278.0648
   5   2.0000     -10.218170      -278.0505
   6   2.0000      -0.834053       -22.6957
   7   2.0000      -0.769769       -20.9465
   8   2.0000      -0.740080       -20.1386
   9   2.0000      -0.640649       -17.4330
  10   2.0000      -0.596004       -16.2181
  11   2.0000      -0.533859       -14.5270
  12   2.0000      -0.507220       -13.8021
  13   2.0000      -0.478400       -13.0179
  14   2.0000      -0.443371       -12.0647
  15   2.0000      -0.421096       -11.4586
  16   2.0000      -0.417418       -11.3585
  17   2.0000      -0.376173       -10.2362
  18   2.0000      -0.366913        -9.9842
  19   2.0000      -0.359727        -9.7887
  20   2.0000      -0.351163        -9.5556
  21   2.0000      -0.241820        -6.5803
  22   2.0000      -0.241580        -6.5737
  23   0.0000      -0.023867        -0.6494
  24   0.0000       0.008562         0.2330
  25   0.0000       0.051843         1.4107
  26   0.0000       0.066709         1.8152
  27   0.0000       0.080670         2.1951

MULLIKEN ATOMIC CHARGES
-----------------------
   0 C :   -0.107627
   1 C :   -0.106835
   2 C :   -0.280068
   3 C :   -0.264214
   4 C :   -0.264444
   5 C :   -0.279538
   6 H :    0.108928
   7 H :    0.108888
   8 H :    0.136522
   9 H :    0.136088
  10 H :    0.139186
  11 H :    0.130689
  12 H :    0.139104
  13 H :    0.130696
  14 H :    0.136040
  15 H :    0.136585
Sum of atomic charges:   -0.0000000

LOEWDIN ATOMIC CHARGES
----------------------
   0 C :   -0.219205
   1 C :   -0.219241
   2 C :   -0.190078
   3 C :   -0.249493
   4 C :   -0.249473
   5 C :   -0.190026
   6 H :    0.144143
   7 H :    0.144168
   8 H :    0.132694
   9 H :    0.125961
  10 H :    0.127415
  11 H :    0.128418
  12 H :    0.127505
  13 H :    0.128454
  14 H :    0.125997
  15 H :    0.132762

  Mayer bond orders larger than 0.100000
B(  0-C ,  1-C ) :   1.3313 B(  0-C ,  5-C ) :   1.5854 B(  0-C ,  6-H ) :   0.9596
B(  1-C ,  2-C ) :   1.5856 B(  1-C ,  7-H ) :   0.9596 B(  2-C ,  3-C ) :   0.3258
B(  2-C ,  5-C ) :   0.1182 B(  2-C ,  8-H ) :   0.9504 B(  2-C ,  9-H ) :   0.9556
B(  3-C ,  4-C ) :   1.6201 B(  3-C , 10-H ) :   0.9541 B(  3-C , 11-H ) :   0.9558
B(  4-C ,  5-C ) :   0.3262 B(  4-C , 12-H ) :   0.9540 B(  4-C , 13-H ) :   0.9558
B(  5-C , 14-H ) :   0.9556 B(  5-C , 15-H ) :   0.9503

Dispersion correction           -0.013041869
FINAL SINGLE POINT ENERGY      -234.341901573471

DIPOLE MOMENT
-------------
                                X             Y             Z
Electronic contribution:     -0.26598      -2.26902      -0.00853
Nuclear contribution   :      0.28946       2.42304       0.04804
                        -----------------------------------------
Total Dipole Moment    :      0.02349       0.15402       0.03951
                        -----------------------------------------
Magnitude (a.u.)       :      0.16073
Magnitude (Debye)      :      0.40855

Rotational constants in cm-1:     0.144521     0.114617     0.075185
Rotational constants in MHz :  4332.626624  3436.124961  2253.991812

                             ****ORCA TERMINATED NORMALLY****
TOTAL RUN TIME: 0 days 0 hours 1 minutes 20 seconds 204 msec
