   * xtb version 6.6.1 (8d0f1dd) compiled by 'conda@1efc2f54142f' on 2023-08-01
          program call               : /home/avcopan/code/other/saddle-search-practice/.pixi/envs/default/bin/xtb H2_opt_xtb.xyz --chrg 0 --uhf 0 --opt

   ID    Z sym.   atoms
    1    1 H      1, 2

          :  Hamiltonian                  GFN2-xTB          :
 * total energy  :    -0.9798154 Eh     change        0.0000000E+00 Eh
 * total energy  :    -0.9826094 Eh     change       -0.2793942E-02 Eh
 * total energy  :    -0.9826824 Eh     change       -0.7300622E-04 Eh
 * total energy  :    -0.9826862 Eh     change       -0.3788758E-05 Eh
   *** GEOMETRY OPTIMIZATION CONVERGED AFTER 4 ITERATIONS ***

 final structure:
================
2
 xtb: 6.6.1 (8d0f1dd)
H            0.38829202085966       -0.00000000000000        0.00000000000000
H           -0.38829202085966        0.00000000000000        0.00000000000000

          :  Hamiltonian                  GFN2-xTB          :
         :: total energy              -0.982686168659 Eh    ::
         :: gradient norm              0.000081770950 Eh/a0 ::
         :: HOMO-LUMO gap             16.103779977738 eV    ::
         :: SCC energy                -1.015012041606 Eh    ::
         :: -> dispersion             -0.000053143338 Eh    ::
         :: repulsion energy           0.032325872947 Eh    ::

    * Orbital Energies and Occupations

         #    Occupation            Energy/Eh            Energy/eV
      -------------------------------------------------------------
         1        2.0000           -0.4647515             -12.6465 (HOMO)
         2                          0.1270516               3.4572 (LUMO)
      -------------------------------------------------------------
                  HL-Gap            0.5918030 Eh           16.1038 eV

     #   Z          covCN         q      C6AA      α(0)
     1   1 H        0.814    -0.000     3.105     2.766
     2   1 H        0.814    -0.000     3.105     2.766

Wiberg/Mayer (AO) data.
largest (>0.10) Wiberg bond orders for each atom

     #   Z sym  total        # sym  WBO       # sym  WBO       # sym  WBO
 ---------------------------------------------------------------------------
     1   1 H    1.000 --     2 H    1.000
     2   1 H    1.000 --     1 H    1.000
 ---------------------------------------------------------------------------

molecular dipole:
                 x           y           z       tot (Debye)
 q only:        0.000       0.000       0.000
   full:        0.000       0.000       0.000       0.000

           -------------------------------------------------
          | TOTAL ENERGY               -0.982686168659 Eh   |
          | GRADIENT NORM               0.000081770950 Eh/α |
          | HOMO-LUMO GAP              16.103779977738 eV   |
           -------------------------------------------------

 * finished run on 2025/05/23 at 11:01:16.777
