                         Program Version 5.0.4 -  RELEASE  -
|  1> ! Opt PBE0 RIJCOSX D3BJ def2-SVP def2/J
|  2> %output
|  3> xyzfile=True
|  4> end
|  5> %scf
|  6> maxiter 250
|  7> end
|  8> %output
|  9> Print[P_Hirshfeld] = 1
| 10> end
| 11> % maxcore
| 12> 4000
| 13> *xyz 0 1
| 14> H    0.38829202  -0.00000000   0.00000000
| 15> H   -0.38829202   0.00000000   0.00000000
| 16> *
| 17>
| 18>                          ****END OF INPUT****
 Total Charge           Charge          ....    0
 Multiplicity           Mult            ....    1
 Number of Electrons    NEL             ....    2
Dispersion correction           -0.000071035
FINAL SINGLE POINT ENERGY        -1.163812160602
Dispersion correction            ... done
Dispersion correction           -0.000069222
FINAL SINGLE POINT ENERGY        -1.163913135857
Dispersion correction            ... done
Dispersion correction           -0.000069761
FINAL SINGLE POINT ENERGY        -1.163974201314
Dispersion correction            ... done
Dispersion correction           -0.000069731
FINAL SINGLE POINT ENERGY        -1.163974352721
Dispersion correction            ... done
                    ***********************HURRAY********************

CARTESIAN COORDINATES (ANGSTROEM)
---------------------------------
  H      0.380296    0.000000    0.000000
  H     -0.380296    0.000000    0.000000

 Multiplicity           Mult            ....    1
 Number of Electrons    NEL             ....    2
 Basis Dimension        Dim             ....   10

ORBITAL ENERGIES
----------------

  NO   OCC          E(Eh)            E(eV)
   0   2.0000      -0.433605       -11.7990
   1   0.0000       0.084297         2.2938
   2   0.0000       0.352981         9.6051
   3   0.0000       0.734368        19.9832
   4   0.0000       1.175926        31.9986
   5   0.0000       1.175926        31.9986

MULLIKEN ATOMIC CHARGES
-----------------------
   0 H :   -0.000000
   1 H :    0.000000
Sum of atomic charges:   -0.0000000

LOEWDIN ATOMIC CHARGES
----------------------
   0 H :   -0.000000
   1 H :    0.000000

  Mayer bond orders larger than 0.100000
B(  0-H ,  1-H ) :   1.0000

Dispersion correction           -0.000069731
FINAL SINGLE POINT ENERGY        -1.163974352903

DIPOLE MOMENT
-------------
                                X             Y             Z
Electronic contribution:     -0.00000       0.00000       0.00000
Nuclear contribution   :      0.00000       0.00000       0.00000
                        -----------------------------------------
Total Dipole Moment    :     -0.00000       0.00000       0.00000
                        -----------------------------------------
Magnitude (a.u.)       :      0.00000
Magnitude (Debye)      :      0.00000

Rotational constants in cm-1:     0.000000    57.817923    57.817923
Rotational constants in MHz :     0.000000 1733337.722392 1733337.722392

                             ****ORCA TERMINATED NORMALLY****
TOTAL RUN TIME: 0 days 0 hours 0 minutes 2 seconds 921 msec
