   * xtb version 6.6.1 (8d0f1dd) compiled by 'conda@1efc2f54142f' on 2023-08-01
          program call               : /home/avcopan/code/other/saddle-search-practice/.pixi/envs/default/bin/xtb TS_5ZPuRE_ll_ad_2-3_4-5_conf3_opt_xtb.xyz --chrg 0 --uhf 0 --opt --input xcontrol_TS_5ZPuRE_ll_ad_2-3_4-5_conf3_opt_xtb

   ID    Z sym.   atoms
    1    6 C      1-6
    2    1 H      7-16
constraining bond 3 4 to    2.3000000 Å, actual value:    2.3000535 Å
constraining bond 5 6 to    2.2977000 Å, actual value:    2.2977315 Å

          :  Hamiltonian                  GFN2-xTB          :
 * total energy  :   -17.6141901 Eh     change       -0.6792789E-11 Eh
 * total energy  :   -17.6827994 Eh     change       -0.6860929E-01 Eh
 * total energy  :   -17.7263904 Eh     change       -0.4359105E-01 Eh
 * total energy  :   -17.7577509 Eh     change       -0.3136048E-01 Eh
 * total energy  :   -17.7739772 Eh     change       -0.1622629E-01 Eh
 * total energy  :   -17.7823878 Eh     change       -0.8410560E-02 Eh
 * total energy  :   -17.7844717 Eh     change       -0.2083970E-02 Eh
 * total energy  :   -17.7866632 Eh     change       -0.2191441E-02 Eh
 * total energy  :   -17.7868743 Eh     change       -0.2111130E-03 Eh
 * total energy  :   -17.7882557 Eh     change       -0.1381379E-02 Eh
 * total energy  :   -17.7975455 Eh     change       -0.1498496E-03 Eh
 * total energy  :   -17.7976568 Eh     change       -0.1113051E-03 Eh
 * total energy  :   -17.7977370 Eh     change       -0.8014214E-04 Eh
 * total energy  :   -17.7977994 Eh     change       -0.6247520E-04 Eh
 * total energy  :   -17.7978234 Eh     change       -0.2400075E-04 Eh
 * total energy  :   -17.7978290 Eh     change       -0.5531980E-05 Eh
 * total energy  :   -17.7978277 Eh     change        0.1293922E-05 Eh
 * total energy  :   -17.7978300 Eh     change       -0.2356782E-05 Eh
 * total energy  :   -17.7978301 Eh     change       -0.1068003E-06 Eh
   *** GEOMETRY OPTIMIZATION CONVERGED AFTER 33 ITERATIONS ***

 final structure:
================
16
 xtb: 6.6.1 (8d0f1dd)
C           -0.72011820182402       -0.57643717376261        1.02495060152252
C            0.56613197212356       -1.10655139575702        0.68743011705244
C            1.63691231314971       -0.57657637335061        1.29922028109681
C            1.37869538690466        1.45946156540366        0.25724721363993
C            0.10665588247627        1.79083057442959       -0.04171974433565
C           -1.40274688502675        0.05921635261511        0.05958249338119
H           -0.91908272758903       -0.36162262069483        2.06622273155106
H            0.67254892763534       -1.59955934634849       -0.26943184419920
H            2.64258781348791       -0.81754684798890        0.99595289515833
H            1.53685650213709       -0.12567444873657        2.27270752018546
H            2.05108755671552        1.12455361759327       -0.51367457540151
H            1.82565348773049        1.77712359207791        1.18137930016243
H           -0.23773344962713        1.78189540810740       -1.05969785350355
H           -0.49767302244070        2.33038219006162        0.66717995202924
H           -2.30600409392725        0.60851044145262        0.26897885787458
H           -1.23472146192715       -0.18828553510096       -0.97549794621428

          :  Hamiltonian                  GFN2-xTB          :
         :: total energy             -17.797830145865 Eh    ::
         :: gradient norm              0.000541459119 Eh/a0 ::
         :: HOMO-LUMO gap              3.909968454623 eV    ::
         :: SCC energy               -18.143516273416 Eh    ::
         :: -> dispersion             -0.011167380432 Eh    ::
         :: repulsion energy           0.345618827878 Eh    ::

    * Orbital Energies and Occupations

         #    Occupation            Energy/Eh            Energy/eV
      -------------------------------------------------------------
         1        2.0000           -0.6250232             -17.0077
       ...           ...                  ...                  ...
         5        2.0000           -0.5473187             -14.8933
         6        2.0000           -0.5385915             -14.6558
         7        2.0000           -0.5012075             -13.6386
         8        2.0000           -0.4978536             -13.5473
         9        2.0000           -0.4961628             -13.5013
        10        2.0000           -0.4732372             -12.8774
        11        2.0000           -0.4631914             -12.6041
        12        2.0000           -0.4492565             -12.2249
        13        2.0000           -0.4385269             -11.9329
        14        2.0000           -0.4305932             -11.7170
        15        2.0000           -0.4193770             -11.4118
        16        2.0000           -0.3884229             -10.5695
        17        2.0000           -0.3685720             -10.0294 (HOMO)
        18                         -0.2248833              -6.1194 (LUMO)
        19                         -0.2082800              -5.6676
        20                         -0.1493870              -4.0650
        21                          0.1134930               3.0883
        22                          0.1479899               4.0270
        23                          0.1613287               4.3900
        24                          0.1666410               4.5345
        25                          0.1807352               4.9181
        26                          0.2063432               5.6149
        27                          0.2229259               6.0661
        28                          0.2236907               6.0869
       ...                                ...                  ...
        34                          0.6004780              16.3398
      -------------------------------------------------------------
                  HL-Gap            0.1436887 Eh            3.9100 eV

     #   Z          covCN         q      C6AA      α(0)
     1   6 C        2.909    -0.032    28.785     8.798
     2   6 C        2.909    -0.031    28.783     8.797
     3   6 C        2.910    -0.071    29.768     8.947
     4   6 C        2.887    -0.086    30.152     9.002
     5   6 C        2.888    -0.086    30.149     9.002
     6   6 C        2.911    -0.071    29.767     8.946
     7   1 H        0.925     0.036     2.501     2.473
     8   1 H        0.925     0.036     2.501     2.473
     9   1 H        0.926     0.039     2.463     2.454
    10   1 H        0.926     0.043     2.407     2.426
    11   1 H        0.926     0.031     2.572     2.508
    12   1 H        0.926     0.039     2.462     2.454
    13   1 H        0.926     0.039     2.461     2.453
    14   1 H        0.926     0.031     2.572     2.508
    15   1 H        0.926     0.039     2.463     2.454
    16   1 H        0.926     0.043     2.406     2.426

Wiberg/Mayer (AO) data.
largest (>0.10) Wiberg bond orders for each atom

     #   Z sym  total        # sym  WBO       # sym  WBO       # sym  WBO
 ---------------------------------------------------------------------------
     1   6 C    3.985 --     6 C    1.743     2 C    1.173     7 H    0.962
     2   6 C    3.985 --     3 C    1.744     1 C    1.173     8 H    0.962
     3   6 C    3.991 --     2 C    1.744     9 H    0.978    10 H    0.974
                             4 C    0.162     6 C    0.102
     4   6 C    3.993 --     5 C    1.803    11 H    0.979    12 H    0.969
                             3 C    0.162
     5   6 C    3.993 --     4 C    1.803    14 H    0.979    13 H    0.969
                             6 C    0.162
     6   6 C    3.991 --     1 C    1.743    15 H    0.978    16 H    0.974
                             5 C    0.162     3 C    0.102
     7   1 H    0.999 --     1 C    0.962
     8   1 H    0.999 --     2 C    0.962
     9   1 H    0.998 --     3 C    0.978
    10   1 H    0.998 --     3 C    0.974
    11   1 H    0.999 --     4 C    0.979
    12   1 H    0.998 --     4 C    0.969
    13   1 H    0.998 --     5 C    0.969
    14   1 H    0.999 --     5 C    0.979
    15   1 H    0.998 --     6 C    0.978
    16   1 H    0.998 --     6 C    0.974
 ---------------------------------------------------------------------------

molecular dipole:
                 x           y           z       tot (Debye)
 q only:       -0.023      -0.068       0.020
   full:        0.001       0.004      -0.002       0.012

           -------------------------------------------------
          | TOTAL ENERGY              -17.797830145865 Eh   |
          | GRADIENT NORM               0.000541459119 Eh/α |
          | HOMO-LUMO GAP               3.909968454623 eV   |
           -------------------------------------------------

 * finished run on 2025/05/23 at 13:00:53.016
