   * xtb version 6.6.1 (8d0f1dd) compiled by 'conda@1efc2f54142f' on 2023-08-01
          program call               : /home/avcopan/code/other/saddle-search-practice/.pixi/envs/default/bin/xtb TS_5ZPuRE_ll_ad_2-3_4-5_conf1_opt_xtb.xyz --chrg 0 --uhf 0 --opt --input xcontrol_TS_5ZPuRE_ll_ad_2-3_4-5_conf1_opt_xtb

   ID    Z sym.   atoms
    1    6 C      1-6
    2    1 H      7-16
constraining bond 3 4 to    2.3000000 Å, actual value:    2.3000625 Å
constraining bond 5 6 to    2.2977000 Å, actual value:    2.2977312 Å

          :  Hamiltonian                  GFN2-xTB          :
 * total energy  :   -17.6554967 Eh     change       -0.1322903E-08 Eh
 * total energy  :   -17.7284025 Eh     change       -0.7290583E-01 Eh
 * total energy  :   -17.7649146 Eh     change       -0.3651206E-01 Eh
 * total energy  :   -17.7799853 Eh     change       -0.1507067E-01 Eh
 * total energy  :   -17.7867476 Eh     change       -0.6762385E-02 Eh
 * total energy  :   -17.7900469 Eh     change       -0.3299283E-02 Eh
 * total energy  :   -17.7920304 Eh     change       -0.1983490E-02 Eh
 * total energy  :   -17.7927860 Eh     change       -0.7555713E-03 Eh
 * total energy  :   -17.7936965 Eh     change       -0.9105512E-03 Eh
 * total energy  :   -17.7951653 Eh     change       -0.1468741E-02 Eh
 * total energy  :   -17.7977381 Eh     change       -0.1072943E-03 Eh
 * total energy  :   -17.7977785 Eh     change       -0.4048210E-04 Eh
 * total energy  :   -17.7977954 Eh     change       -0.1688602E-04 Eh
 * total energy  :   -17.7978103 Eh     change       -0.1484410E-04 Eh
 * total energy  :   -17.7978190 Eh     change       -0.8723555E-05 Eh
 * total energy  :   -17.7978245 Eh     change       -0.5524356E-05 Eh
 * total energy  :   -17.7978275 Eh     change       -0.3025824E-05 Eh
 * total energy  :   -17.7978289 Eh     change       -0.1354566E-05 Eh
 * total energy  :   -17.7978297 Eh     change       -0.8084971E-06 Eh
   *** GEOMETRY OPTIMIZATION CONVERGED AFTER 30 ITERATIONS ***

 final structure:
================
16
 xtb: 6.6.1 (8d0f1dd)
C           -1.16877943634816       -1.61700028542955        0.00087957819595
C            0.19374294795934       -1.76010099146660       -0.41446452830314
C            0.61271982506810       -1.00593046780408       -1.44273297056247
C            0.40554106922798        0.95194683234888       -0.25046985092779
C           -0.56917555205573        0.95269829849659        0.68038280718996
C           -1.39521534644609       -1.12213160606522        1.22791873697056
H           -1.92450917604447       -1.53528264343101       -0.76866810471948
H            0.90340558674608       -2.14121183635266        0.30748577084570
H           -0.08931863634832       -0.66471681110837       -2.18558225279751
H            1.65247294773915       -0.94867360382452       -1.72007542942826
H            1.43780822004333        0.86075408658364        0.04059398628744
H            0.21588500741049        1.31329376858512       -1.24443105911554
H           -1.56789605896640        1.26162741631450        0.42407018040725
H           -0.32828680750649        0.92379826212191        1.72710133007470
H           -0.65945870200909       -1.24473270173109        2.00552896566663
H           -2.38430588847069       -0.85007771723624        1.55807284021750

          :  Hamiltonian                  GFN2-xTB          :
         :: total energy             -17.797829710822 Eh    ::
         :: gradient norm              0.000294753988 Eh/a0 ::
         :: HOMO-LUMO gap              3.910694071894 eV    ::
         :: SCC energy               -18.143668077995 Eh    ::
         :: -> dispersion             -0.011167877361 Eh    ::
         :: repulsion energy           0.345771735940 Eh    ::

    * Orbital Energies and Occupations

         #    Occupation            Energy/Eh            Energy/eV
      -------------------------------------------------------------
         1        2.0000           -0.6250168             -17.0076
       ...           ...                  ...                  ...
         5        2.0000           -0.5473082             -14.8930
         6        2.0000           -0.5386245             -14.6567
         7        2.0000           -0.5012054             -13.6385
         8        2.0000           -0.4978035             -13.5459
         9        2.0000           -0.4962158             -13.5027
        10        2.0000           -0.4732667             -12.8782
        11        2.0000           -0.4632135             -12.6047
        12        2.0000           -0.4492424             -12.2245
        13        2.0000           -0.4385132             -11.9326
        14        2.0000           -0.4305301             -11.7153
        15        2.0000           -0.4194385             -11.4135
        16        2.0000           -0.3884394             -10.5700
        17        2.0000           -0.3685506             -10.0288 (HOMO)
        18                         -0.2248352              -6.1181 (LUMO)
        19                         -0.2082234              -5.6660
        20                         -0.1494205              -4.0659
        21                          0.1135512               3.0899
        22                          0.1481719               4.0320
        23                          0.1614460               4.3932
        24                          0.1667475               4.5374
        25                          0.1807616               4.9188
        26                          0.2064450               5.6177
        27                          0.2230648               6.0699
        28                          0.2235292               6.0825
       ...                                ...                  ...
        34                          0.6005097              16.3407
      -------------------------------------------------------------
                  HL-Gap            0.1437154 Eh            3.9107 eV

     #   Z          covCN         q      C6AA      α(0)
     1   6 C        2.909    -0.032    28.785     8.798
     2   6 C        2.909    -0.031    28.783     8.797
     3   6 C        2.910    -0.071    29.768     8.947
     4   6 C        2.887    -0.086    30.151     9.002
     5   6 C        2.888    -0.086    30.149     9.002
     6   6 C        2.911    -0.071    29.766     8.946
     7   1 H        0.925     0.036     2.501     2.473
     8   1 H        0.925     0.036     2.501     2.473
     9   1 H        0.926     0.043     2.407     2.426
    10   1 H        0.926     0.039     2.463     2.454
    11   1 H        0.926     0.031     2.573     2.509
    12   1 H        0.926     0.039     2.460     2.453
    13   1 H        0.926     0.031     2.573     2.508
    14   1 H        0.926     0.039     2.459     2.452
    15   1 H        0.926     0.043     2.407     2.426
    16   1 H        0.926     0.039     2.463     2.454

Wiberg/Mayer (AO) data.
largest (>0.10) Wiberg bond orders for each atom

     #   Z sym  total        # sym  WBO       # sym  WBO       # sym  WBO
 ---------------------------------------------------------------------------
     1   6 C    3.985 --     6 C    1.744     2 C    1.173     7 H    0.962
     2   6 C    3.985 --     3 C    1.744     1 C    1.173     8 H    0.962
     3   6 C    3.991 --     2 C    1.744    10 H    0.978     9 H    0.974
                             4 C    0.162     6 C    0.102
     4   6 C    3.993 --     5 C    1.803    11 H    0.979    12 H    0.969
                             3 C    0.162
     5   6 C    3.993 --     4 C    1.803    13 H    0.979    14 H    0.969
                             6 C    0.162
     6   6 C    3.991 --     1 C    1.744    16 H    0.978    15 H    0.974
                             5 C    0.162     3 C    0.102
     7   1 H    0.999 --     1 C    0.962
     8   1 H    0.999 --     2 C    0.962
     9   1 H    0.998 --     3 C    0.974
    10   1 H    0.998 --     3 C    0.978
    11   1 H    0.999 --     4 C    0.979
    12   1 H    0.998 --     4 C    0.969
    13   1 H    0.999 --     5 C    0.979
    14   1 H    0.998 --     5 C    0.969
    15   1 H    0.998 --     6 C    0.974
    16   1 H    0.998 --     6 C    0.978
 ---------------------------------------------------------------------------

molecular dipole:
                 x           y           z       tot (Debye)
 q only:       -0.011      -0.073      -0.011
   full:        0.001       0.005       0.001       0.013

           -------------------------------------------------
          | TOTAL ENERGY              -17.797829710822 Eh   |
          | GRADIENT NORM               0.000294753988 Eh/α |
          | HOMO-LUMO GAP               3.910694071894 eV   |
           -------------------------------------------------

 * finished run on 2025/05/23 at 13:00:52.440
