                         Program Version 5.0.4 -  RELEASE  -
|  1> ! LooseOpt PBE0 RIJCOSX D3BJ def2-SVP def2/J
|  2> %geom Constraints
|  3> { B 2 3 2.300049366945611 C }
|  4> { B 4 5 2.29771874679169 C }
|  5>     end
|  6> end
|  7> %geom MaxIter 10 end
|  8> %output
|  9> xyzfile=True
| 10> end
| 11> %scf
| 12> maxiter 250
| 13> end
| 14> %output
| 15> Print[P_Hirshfeld] = 1
| 16> end
| 17> % maxcore
| 18> 4000
| 19> *xyz 0 1
| 20> C   -1.57093909  -1.78063350  -0.41636672
| 21> C   -0.22144649  -1.91642315  -0.81438368
| 22> C    0.48243345  -0.88918825  -1.35165494
| 23> C    0.35718956   0.56791688   0.42323843
| 24> C   -0.93784777   0.70915738   0.79030265
| 25> C   -2.25308422  -0.61591954  -0.54882433
| 26> H   -1.98799295  -2.56981672   0.19529398
| 27> H    0.30523333  -2.80201600  -0.48455753
| 28> H    1.54184483  -0.98642674  -1.52588595
| 29> H   -0.00379316  -0.10110801  -1.89635295
| 30> H    0.83245374   1.28922378  -0.21886336
| 31> H    1.01380088  -0.08642462   0.96954180
| 32> H   -1.52169595   1.54486110   0.44482702
| 33> H   -1.32979182   0.17397024   1.63731096
| 34> H   -3.23643947  -0.50929031  -0.11997743
| 35> H   -2.00465487   0.09480746  -1.31519797
| 36> *
| 37>
| 38>                          ****END OF INPUT****
 Total Charge           Charge          ....    0
 Multiplicity           Mult            ....    1
 Number of Electrons    NEL             ....   46
Dispersion correction           -0.013228576
FINAL SINGLE POINT ENERGY      -234.087523083905
Dispersion correction            ... done
Dispersion correction           -0.013152038
FINAL SINGLE POINT ENERGY      -234.090050849430
Dispersion correction            ... done
Dispersion correction           -0.013119706
FINAL SINGLE POINT ENERGY      -234.090376962921
Dispersion correction            ... done
FINAL SINGLE POINT ENERGY      -234.090664440639
Dispersion correction            ... done
Dispersion correction           -0.013053316
FINAL SINGLE POINT ENERGY      -234.090733501493
Dispersion correction            ... done
Dispersion correction           -0.013043302
FINAL SINGLE POINT ENERGY      -234.090769226793
Dispersion correction            ... done
                    ***********************HURRAY********************

CARTESIAN COORDINATES (ANGSTROEM)
---------------------------------
  C     -1.582124   -1.824744   -0.438054
  C     -0.234272   -1.960762   -0.832192
  C      0.488349   -0.903170   -1.332443
  C      0.368261    0.594336    0.409189
  C     -0.948280    0.731170    0.787850
  C     -2.249959   -0.626361   -0.532095
  H     -2.029701   -2.633100    0.149102
  H      0.299398   -2.868502   -0.532615
  H      1.560596   -1.005690   -1.518993
  H     -0.004844   -0.102655   -1.885400
  H      0.842816    1.350765   -0.220450
  H      1.048077   -0.026844    0.994292
  H     -1.528629    1.596805    0.459600
  H     -1.320732    0.223442    1.678810
  H     -3.253183   -0.518268   -0.111453
  H     -1.990502    0.096269   -1.306699

 Multiplicity           Mult            ....    1
 Number of Electrons    NEL             ....   46
 Basis Dimension        Dim             ....  134

ORBITAL ENERGIES
----------------

  NO   OCC          E(Eh)            E(eV)
   0   2.0000     -10.240463      -278.6572
   1   2.0000     -10.240377      -278.6548
   2   2.0000     -10.234910      -278.5061
   3   2.0000     -10.234389      -278.4919
   4   2.0000     -10.227961      -278.3170
   5   2.0000     -10.227604      -278.3073
   6   2.0000      -0.825099       -22.4521
   7   2.0000      -0.760425       -20.6922
   8   2.0000      -0.731044       -19.8927
   9   2.0000      -0.632928       -17.2229
  10   2.0000      -0.588363       -16.0102
  11   2.0000      -0.527386       -14.3509
  12   2.0000      -0.504908       -13.7392
  13   2.0000      -0.476027       -12.9534
  14   2.0000      -0.442076       -12.0295
  15   2.0000      -0.419827       -11.4241
  16   2.0000      -0.415757       -11.3133
  17   2.0000      -0.373971       -10.1763
  18   2.0000      -0.365483        -9.9453
  19   2.0000      -0.358168        -9.7463
  20   2.0000      -0.349563        -9.5121
  21   2.0000      -0.240246        -6.5374
  22   2.0000      -0.239960        -6.5296
  23   0.0000      -0.017166        -0.4671
  24   0.0000       0.015172         0.4129
  25   0.0000       0.071438         1.9439
  26   0.0000       0.084845         2.3088
  27   0.0000       0.109011         2.9663

MULLIKEN ATOMIC CHARGES
-----------------------
   0 C :   -0.070916
   1 C :   -0.071867
   2 C :   -0.066046
   3 C :   -0.114242
   4 C :   -0.114906
   5 C :   -0.066468
   6 H :    0.024762
   7 H :    0.024785
   8 H :    0.052940
   9 H :    0.058407
  10 H :    0.054929
  11 H :    0.060939
  12 H :    0.054656
  13 H :    0.061241
  14 H :    0.053101
  15 H :    0.058685
Sum of atomic charges:   -0.0000000

LOEWDIN ATOMIC CHARGES
----------------------
   0 C :   -0.064086
   1 C :   -0.063968
   2 C :   -0.026252
   3 C :   -0.060479
   4 C :   -0.060792
   5 C :   -0.026184
   6 H :    0.030608
   7 H :    0.030617
   8 H :    0.029626
   9 H :    0.030133
  10 H :    0.029839
  11 H :    0.030593
  12 H :    0.029735
  13 H :    0.030732
  14 H :    0.029654
  15 H :    0.030227

  Mayer bond orders larger than 0.100000
B(  0-C ,  1-C ) :   1.3293 B(  0-C ,  5-C ) :   1.6174 B(  0-C ,  6-H ) :   0.9716
B(  1-C ,  2-C ) :   1.6182 B(  1-C ,  7-H ) :   0.9716 B(  2-C ,  3-C ) :   0.3671
B(  2-C ,  5-C ) :   0.1335 B(  2-C ,  8-H ) :   0.9537 B(  2-C ,  9-H ) :   0.9328
B(  3-C ,  4-C ) :   1.6827 B(  3-C , 10-H ) :   0.9540 B(  3-C , 11-H ) :   0.9533
B(  4-C ,  5-C ) :   0.3677 B(  4-C , 12-H ) :   0.9542 B(  4-C , 13-H ) :   0.9530
B(  5-C , 14-H ) :   0.9538 B(  5-C , 15-H ) :   0.9326

Dispersion correction           -0.013041799
FINAL SINGLE POINT ENERGY      -234.090779079233

DIPOLE MOMENT
-------------
                                X             Y             Z
Electronic contribution:     -0.42260      -2.13606      -0.70541
Nuclear contribution   :      0.45543       2.27282       0.77019
                        -----------------------------------------
Total Dipole Moment    :      0.03283       0.13676       0.06478
                        -----------------------------------------
Magnitude (a.u.)       :      0.15484
Magnitude (Debye)      :      0.39358

Rotational constants in cm-1:     0.144628     0.114538     0.075157
Rotational constants in MHz :  4335.852420  3433.751107  2253.164358

                             ****ORCA TERMINATED NORMALLY****
TOTAL RUN TIME: 0 days 0 hours 5 minutes 8 seconds 364 msec
