   * xtb version 6.6.1 (8d0f1dd) compiled by 'conda@1efc2f54142f' on 2023-08-01
          program call               : /home/avcopan/code/other/saddle-search-practice/.pixi/envs/default/bin/xtb TS_5ZPuRE_ll_ad_2-3_4-5_conf299_opt_xtb.xyz --chrg 0 --uhf 0 --opt --input xcontrol_TS_5ZPuRE_ll_ad_2-3_4-5_conf299_opt_xtb

   ID    Z sym.   atoms
    1    6 C      1-6
    2    1 H      7-16
constraining bond 3 4 to    2.3000000 Å, actual value:    2.3000594 Å
constraining bond 5 6 to    2.2977000 Å, actual value:    2.2977204 Å

          :  Hamiltonian                  GFN2-xTB          :
 * total energy  :   -17.6503263 Eh     change       -0.7409469E-09 Eh
 * total energy  :   -17.7215149 Eh     change       -0.7118860E-01 Eh
 * total energy  :   -17.7588953 Eh     change       -0.3738041E-01 Eh
 * total energy  :   -17.7811601 Eh     change       -0.2226482E-01 Eh
 * total energy  :   -17.7927036 Eh     change       -0.1154345E-01 Eh
 * total energy  :   -17.7999894 Eh     change       -0.7285802E-02 Eh
 * total energy  :   -17.8054051 Eh     change       -0.5415695E-02 Eh
 * total energy  :   -17.8072939 Eh     change       -0.1888848E-02 Eh
 * total energy  :   -17.8096102 Eh     change       -0.2316202E-02 Eh
 * total energy  :   -17.8090559 Eh     change        0.5542292E-03 Eh
 * total energy  :   -17.8119669 Eh     change       -0.1630826E-03 Eh
 * total energy  :   -17.8121219 Eh     change       -0.1550339E-03 Eh
 * total energy  :   -17.8121702 Eh     change       -0.4833445E-04 Eh
 * total energy  :   -17.8121995 Eh     change       -0.2925819E-04 Eh
 * total energy  :   -17.8122126 Eh     change       -0.1307685E-04 Eh
 * total energy  :   -17.8122690 Eh     change       -0.5639369E-04 Eh
 * total energy  :   -17.8122856 Eh     change       -0.1665401E-04 Eh
 * total energy  :   -17.8122904 Eh     change       -0.4788727E-05 Eh
 * total energy  :   -17.8122941 Eh     change       -0.3644783E-05 Eh
   *** GEOMETRY OPTIMIZATION CONVERGED AFTER 25 ITERATIONS ***

 final structure:
================
16
 xtb: 6.6.1 (8d0f1dd)
C           -1.57093908864382       -1.78063349954322       -0.41636671978774
C           -0.22144649371009       -1.91642315110702       -0.81438367564163
C            0.48243344950539       -0.88918825018921       -1.35165493799287
C            0.35718955575460        0.56791687642488        0.42323842810535
C           -0.93784776502072        0.70915737873585        0.79030265377588
C           -2.25308422071214       -0.61591954039877       -0.54882432620796
H           -1.98799294782506       -2.56981671723238        0.19529398464820
H            0.30523332718458       -2.80201599525252       -0.48455753300972
H            1.54184483216848       -0.98642673704761       -1.52588594524414
H           -0.00379316104813       -0.10110800693567       -1.89635294562287
H            0.83245374317028        1.28922378251634       -0.21886335663353
H            1.01380087797708       -0.08642461820408        0.96954179532185
H           -1.52169595361051        1.54486109930744        0.44482701634026
H           -1.32979181707138        0.17397023543323        1.63731096355047
H           -3.23643946655169       -0.50929031319095       -0.11997742969221
H           -2.00465487156661        0.09480745668161       -1.31519797191121

          :  Hamiltonian                  GFN2-xTB          :
         :: total energy             -17.812294065602 Eh    ::
         :: gradient norm              0.000748363959 Eh/a0 ::
         :: HOMO-LUMO gap              3.862982344874 eV    ::
         :: SCC energy               -18.152262474985 Eh    ::
         :: -> dispersion             -0.011151930808 Eh    ::
         :: repulsion energy           0.339939882915 Eh    ::

    * Orbital Energies and Occupations

         #    Occupation            Energy/Eh            Energy/eV
      -------------------------------------------------------------
         1        2.0000           -0.6207067             -16.8903
       ...           ...                  ...                  ...
         5        2.0000           -0.5471129             -14.8877
         6        2.0000           -0.5229920             -14.2313
         7        2.0000           -0.5169754             -14.0676
         8        2.0000           -0.5029685             -13.6865
         9        2.0000           -0.4787663             -13.0279
        10        2.0000           -0.4669228             -12.7056
        11        2.0000           -0.4668601             -12.7039
        12        2.0000           -0.4547580             -12.3746
        13        2.0000           -0.4376698             -11.9096
        14        2.0000           -0.4290575             -11.6752
        15        2.0000           -0.4210229             -11.4566
        16        2.0000           -0.3814507             -10.3798
        17        2.0000           -0.3787316             -10.3058 (HOMO)
        18                         -0.2367696              -6.4428 (LUMO)
        19                         -0.2039112              -5.5487
        20                         -0.1258177              -3.4237
        21                          0.1238262               3.3695
        22                          0.1416021               3.8532
        23                          0.1444685               3.9312
        24                          0.1647608               4.4834
        25                          0.1723331               4.6894
        26                          0.2005892               5.4583
        27                          0.2103499               5.7239
        28                          0.2883847               7.8473
       ...                                ...                  ...
        34                          0.6160070              16.7624
      -------------------------------------------------------------
                  HL-Gap            0.1419620 Eh            3.8630 eV

     #   Z          covCN         q      C6AA      α(0)
     1   6 C        2.898    -0.034    28.835     8.804
     2   6 C        2.898    -0.033    28.831     8.804
     3   6 C        2.899    -0.074    29.835     8.956
     4   6 C        2.887    -0.077    29.914     8.967
     5   6 C        2.889    -0.077    29.915     8.967
     6   6 C        2.900    -0.074    29.835     8.956
     7   1 H        0.925     0.028     2.621     2.532
     8   1 H        0.925     0.028     2.621     2.532
     9   1 H        0.926     0.034     2.525     2.485
    10   1 H        0.926     0.048     2.348     2.396
    11   1 H        0.926     0.039     2.456     2.451
    12   1 H        0.926     0.035     2.521     2.483
    13   1 H        0.926     0.039     2.462     2.454
    14   1 H        0.926     0.035     2.514     2.479
    15   1 H        0.926     0.034     2.525     2.485
    16   1 H        0.926     0.048     2.348     2.396

Wiberg/Mayer (AO) data.
largest (>0.10) Wiberg bond orders for each atom

     #   Z sym  total        # sym  WBO       # sym  WBO       # sym  WBO
 ---------------------------------------------------------------------------
     1   6 C    3.990 --     6 C    1.654     2 C    1.267     7 H    0.968
     2   6 C    3.990 --     3 C    1.654     1 C    1.267     8 H    0.968
     3   6 C    3.992 --     2 C    1.654     9 H    0.981    10 H    0.968
                             4 C    0.225     6 C    0.138
     4   6 C    3.993 --     5 C    1.730    12 H    0.978    11 H    0.974
                             3 C    0.225
     5   6 C    3.993 --     4 C    1.730    14 H    0.978    13 H    0.975
                             6 C    0.225
     6   6 C    3.992 --     1 C    1.654    15 H    0.981    16 H    0.968
                             5 C    0.225     3 C    0.138
     7   1 H    0.999 --     1 C    0.968
     8   1 H    0.999 --     2 C    0.968
     9   1 H    0.999 --     3 C    0.981
    10   1 H    0.998 --     3 C    0.968
    11   1 H    0.998 --     4 C    0.974
    12   1 H    0.999 --     4 C    0.978
    13   1 H    0.998 --     5 C    0.975
    14   1 H    0.999 --     5 C    0.978
    15   1 H    0.999 --     6 C    0.981
    16   1 H    0.998 --     6 C    0.968
 ---------------------------------------------------------------------------

molecular dipole:
                 x           y           z       tot (Debye)
 q only:       -0.007       0.096      -0.057
   full:        0.003       0.110      -0.027       0.289

           -------------------------------------------------
          | TOTAL ENERGY              -17.812294065602 Eh   |
          | GRADIENT NORM               0.000748363959 Eh/α |
          | HOMO-LUMO GAP               3.862982344874 eV   |
           -------------------------------------------------

 * finished run on 2025/05/23 at 13:00:53.499
