                         Program Version 5.0.4 -  RELEASE  -
|  1> ! Freq PBE0 RIJCOSX D3BJ def2-SVP def2/J
|  2> %output
|  3> xyzfile=True
|  4> end
|  5> %scf
|  6> maxiter 250
|  7> end
|  8> %output
|  9> Print[P_Hirshfeld] = 1
| 10> end
| 11> % maxcore
| 12> 4000
| 13> *xyz 0 1
| 14> C   -0.90753937  -1.36551530  -0.20013780
| 15> C    0.40018334  -1.57935780  -0.27054968
| 16> C    1.51051799  -0.63024290  -0.13962703
| 17> C    0.82611119   1.36423301  -0.20262756
| 18> C   -0.34725670   1.42470774   0.65999901
| 19> C   -1.63814496  -0.11142796   0.00854072
| 20> H   -1.56321004  -2.22542572  -0.31997668
| 21> H    0.73268682  -2.60204048  -0.43597677
| 22> H    2.20625781  -0.63521032  -0.96730685
| 23> H    2.00418506  -0.64778674   0.82357599
| 24> H    0.65187621   1.52951543  -1.25529875
| 25> H    1.72397916   1.84016526   0.17031030
| 26> H   -1.01863760   2.25889399   0.50153804
| 27> H   -0.18585637   1.18709515   1.70058876
| 28> H   -2.35285007  -0.13887504   0.81970496
| 29> H   -2.04224248   0.33118168  -0.89251665
| 30> *
| 31>
| 32>                          ****END OF INPUT****

CARTESIAN COORDINATES (ANGSTROEM)
---------------------------------
  C     -0.907539   -1.365515   -0.200138
  C      0.400183   -1.579358   -0.270550
  C      1.510518   -0.630243   -0.139627
  C      0.826111    1.364233   -0.202628
  C     -0.347257    1.424708    0.659999
  C     -1.638145   -0.111428    0.008541
  H     -1.563210   -2.225426   -0.319977
  H      0.732687   -2.602040   -0.435977
  H      2.206258   -0.635210   -0.967307
  H      2.004185   -0.647787    0.823576
  H      0.651876    1.529515   -1.255299
  H      1.723979    1.840165    0.170310
  H     -1.018638    2.258894    0.501538
  H     -0.185856    1.187095    1.700589
  H     -2.352850   -0.138875    0.819705
  H     -2.042242    0.331182   -0.892517

 Total Charge           Charge          ....    0
 Multiplicity           Mult            ....    1
 Number of Electrons    NEL             ....   46
 Basis Dimension        Dim             ....  134

ORBITAL ENERGIES
----------------

  NO   OCC          E(Eh)            E(eV)
   0   2.0000     -10.246957      -278.8339
   1   2.0000     -10.246701      -278.8269
   2   2.0000     -10.244301      -278.7616
   3   2.0000     -10.244283      -278.7611
   4   2.0000     -10.227002      -278.2909
   5   2.0000     -10.226173      -278.2683
   6   2.0000      -0.813962       -22.1490
   7   2.0000      -0.756436       -20.5837
   8   2.0000      -0.725949       -19.7541
   9   2.0000      -0.640200       -17.4207
  10   2.0000      -0.595651       -16.2085
  11   2.0000      -0.517894       -14.0926
  12   2.0000      -0.481745       -13.1089
  13   2.0000      -0.460212       -12.5230
  14   2.0000      -0.426885       -11.6161
  15   2.0000      -0.426263       -11.5992
  16   2.0000      -0.422625       -11.5002
  17   2.0000      -0.403659       -10.9841
  18   2.0000      -0.379295       -10.3211
  19   2.0000      -0.364239        -9.9115
  20   2.0000      -0.284811        -7.7501
  21   2.0000      -0.261293        -7.1101
  22   2.0000      -0.227129        -6.1805
  23   0.0000       0.000381         0.0104
  24   0.0000       0.039430         1.0729
  25   0.0000       0.062300         1.6953
  26   0.0000       0.074045         2.0149
  27   0.0000       0.107442         2.9236

MULLIKEN ATOMIC CHARGES
-----------------------
   0 C :   -0.089831
   1 C :   -0.089430
   2 C :   -0.071970
   3 C :   -0.095787
   4 C :   -0.095556
   5 C :   -0.071879
   6 H :    0.028668
   7 H :    0.028564
   8 H :    0.055890
   9 H :    0.062043
  10 H :    0.056037
  11 H :    0.054626
  12 H :    0.054671
  13 H :    0.056228
  14 H :    0.055336
  15 H :    0.062389
Sum of atomic charges:    0.0000000

LOEWDIN ATOMIC CHARGES
----------------------
   0 C :   -0.059264
   1 C :   -0.058995
   2 C :   -0.039830
   3 C :   -0.037949
   4 C :   -0.037637
   5 C :   -0.039560
   6 H :    0.031854
   7 H :    0.031843
   8 H :    0.027867
   9 H :    0.029509
  10 H :    0.024080
  11 H :    0.023333
  12 H :    0.023413
  13 H :    0.024143
  14 H :    0.027672
  15 H :    0.029522

  Mayer bond orders larger than 0.100000
B(  0-C ,  1-C ) :   1.9745 B(  0-C ,  5-C ) :   1.0524 B(  0-C ,  6-H ) :   0.9436
B(  1-C ,  2-C ) :   1.0520 B(  1-C ,  7-H ) :   0.9434 B(  2-C ,  3-C ) :   0.9533
B(  2-C ,  8-H ) :   0.9483 B(  2-C ,  9-H ) :   0.9455 B(  3-C ,  4-C ) :   1.1218
B(  3-C , 10-H ) :   0.9620 B(  3-C , 11-H ) :   0.9518 B(  4-C ,  5-C ) :   0.9533
B(  4-C , 12-H ) :   0.9518 B(  4-C , 13-H ) :   0.9621 B(  5-C , 14-H ) :   0.9484
B(  5-C , 15-H ) :   0.9456

Dispersion correction           -0.012365049
FINAL SINGLE POINT ENERGY      -234.068413798151

DIPOLE MOMENT
-------------
                                X             Y             Z
Electronic contribution:     -0.32656      -1.88138      -0.30287
Nuclear contribution   :      0.34272       1.97000       0.31713
                        -----------------------------------------
Total Dipole Moment    :      0.01616       0.08861       0.01426
                        -----------------------------------------
Magnitude (a.u.)       :      0.09120
Magnitude (Debye)      :      0.23180

Dispersion correction in the Hessian             ... done   (      3.2 sec)

VIBRATIONAL FREQUENCIES
-----------------------

Scaling factor for frequencies =  1.000000000  (already applied!)

   0:         0.00 cm**-1
   1:         0.00 cm**-1
   2:         0.00 cm**-1
   3:         0.00 cm**-1
   4:         0.00 cm**-1
   5:         0.00 cm**-1
   6:      -272.49 cm**-1 ***imaginary mode***
   7:      -261.78 cm**-1 ***imaginary mode***
   8:      -172.63 cm**-1 ***imaginary mode***
   9:        80.56 cm**-1
  10:       289.53 cm**-1
  11:       299.27 cm**-1
  12:       433.25 cm**-1
  13:       511.06 cm**-1
  14:       578.19 cm**-1
  15:       623.52 cm**-1
  16:       681.97 cm**-1
  17:       780.74 cm**-1
  18:       807.33 cm**-1
  19:       903.17 cm**-1
  20:       916.84 cm**-1
  21:       920.91 cm**-1
  22:       951.63 cm**-1
  23:       955.37 cm**-1
  24:      1003.24 cm**-1
  25:      1038.89 cm**-1
  26:      1054.65 cm**-1
  27:      1057.17 cm**-1
  28:      1127.33 cm**-1
  29:      1161.41 cm**-1
  30:      1206.05 cm**-1
  31:      1239.99 cm**-1
  32:      1373.53 cm**-1
  33:      1393.37 cm**-1
  34:      1393.86 cm**-1
  35:      1428.02 cm**-1
  36:      1447.30 cm**-1
  37:      1814.40 cm**-1
  38:      3222.55 cm**-1
  39:      3242.49 cm**-1
  40:      3254.07 cm**-1
  41:      3256.08 cm**-1
  42:      3258.59 cm**-1
  43:      3262.29 cm**-1
  44:      3354.02 cm**-1
  45:      3354.77 cm**-1
  46:      3363.66 cm**-1
  47:      3377.80 cm**-1

IR SPECTRUM
-----------

 Mode   freq       eps      Int      T**2         TX        TY        TZ
       cm**-1   L/(mol*cm) km/mol    a.u.
----------------------------------------------------------------------------
  9:     80.56   0.000001    0.01  0.000004  (-0.000353 -0.001927 -0.000707)
 10:    289.53   0.000054    0.27  0.000058  ( 0.000550  0.007577  0.000209)
 11:    299.27   0.000609    3.08  0.000635  ( 0.013727 -0.005411  0.020434)
 12:    433.25   0.000016    0.08  0.000011  ( 0.000911  0.003218 -0.000533)
 13:    511.06   0.005414   27.36  0.003306  (-0.002335 -0.008806  0.056768)
 14:    578.19   0.000792    4.00  0.000427  ( 0.003814 -0.003771  0.019965)
 15:    623.52   0.000192    0.97  0.000096  (-0.002141 -0.009525 -0.001016)
 16:    681.97   0.000669    3.38  0.000306  (-0.017239  0.002813 -0.000952)
 17:    780.74   0.000012    0.06  0.000005  ( 0.001327  0.001423  0.001024)
 18:    807.33   0.001177    5.95  0.000455  ( 0.016532 -0.005320  0.012388)
 19:    903.17   0.000048    0.24  0.000017  ( 0.000567  0.003975  0.000785)
 20:    916.84   0.000819    4.14  0.000279  (-0.002577 -0.016318 -0.002420)
 21:    920.91   0.000115    0.58  0.000039  ( 0.002454  0.000772  0.005701)
 22:    951.63   0.000475    2.40  0.000156  (-0.011856  0.001656  0.003507)
 23:    955.37   0.000053    0.27  0.000017  ( 0.003944  0.000849 -0.000973)
 24:   1003.24   0.000027    0.14  0.000008  ( 0.000387 -0.000430  0.002831)
 25:   1038.89   0.000132    0.67  0.000040  ( 0.000947  0.005968  0.001773)
 26:   1054.65   0.001785    9.02  0.000528  (-0.004359 -0.003127  0.022344)
 27:   1057.17   0.000049    0.25  0.000014  ( 0.000753  0.003637  0.000794)
 28:   1127.33   0.002361   11.93  0.000654  ( 0.025187 -0.004364  0.000420)
 29:   1161.41   0.001481    7.48  0.000398  ( 0.003171  0.019454  0.003075)
 30:   1206.05   0.000001    0.00  0.000000  (-0.000225 -0.000255 -0.000187)
 31:   1239.99   0.001793    9.06  0.000451  (-0.003791 -0.020632 -0.003361)
 32:   1373.53   0.000814    4.11  0.000185  ( 0.011830 -0.002894  0.006051)
 33:   1393.37   0.000584    2.95  0.000131  ( 0.003231 -0.002364  0.010710)
 34:   1393.86   0.000016    0.08  0.000003  (-0.000473  0.000780 -0.001626)
 35:   1428.02   0.000130    0.66  0.000028  ( 0.005211 -0.001095  0.000044)
 36:   1447.30   0.000021    0.10  0.000004  ( 0.000432  0.002036  0.000380)
 37:   1814.40   0.001333    6.74  0.000229  ( 0.002623  0.014737  0.002282)
 38:   3222.55   0.000330    1.67  0.000032  (-0.005496  0.001304 -0.000230)
 39:   3242.49   0.005230   26.43  0.000503  ( 0.004005  0.021795  0.003498)
 40:   3254.07   0.004801   24.26  0.000460  ( 0.018533 -0.000869 -0.010780)
 41:   3256.08   0.005180   26.18  0.000496  ( 0.020897 -0.006942  0.003401)
 42:   3258.59   0.001413    7.14  0.000135  (-0.006772 -0.009204 -0.002168)
 43:   3262.29   0.004512   22.80  0.000432  (-0.002965 -0.020231 -0.003675)
 44:   3354.02   0.001449    7.32  0.000135  ( 0.002210  0.000665 -0.011380)
 45:   3354.77   0.000333    1.68  0.000031  (-0.001290 -0.002432  0.004833)
 46:   3363.66   0.000179    0.90  0.000017  ( 0.001075  0.003698  0.001328)
 47:   3377.80   0.002076   10.49  0.000192  ( 0.005388 -0.003028  0.012392)

--------------------------
THERMOCHEMISTRY AT 298.15K
--------------------------

Temperature         ... 298.15 K
Pressure            ... 1.00 atm
Total Mass          ... 82.15 AMU

Throughout the following assumptions are being made:
  (1) The electronic state is orbitally nondegenerate
  (2) There are no thermally accessible electronically excited states
  (3) Hindered rotations indicated by low frequency modes are not
      treated as such but are treated as vibrations and this may
      cause some error
  (4) All equations used are the standard statistical mechanics
      equations for an ideal gas
  (5) All vibrations are strictly harmonic

freq.      80.56  E(vib)   ...       0.48
freq.     289.53  E(vib)   ...       0.27
freq.     299.27  E(vib)   ...       0.26
freq.     433.25  E(vib)   ...       0.17
freq.     511.06  E(vib)   ...       0.14
freq.     578.19  E(vib)   ...       0.11
freq.     623.52  E(vib)   ...       0.09
freq.     681.97  E(vib)   ...       0.08
freq.     780.74  E(vib)   ...       0.05
freq.     807.33  E(vib)   ...       0.05
freq.     903.17  E(vib)   ...       0.03
freq.     916.84  E(vib)   ...       0.03
freq.     920.91  E(vib)   ...       0.03
freq.     951.63  E(vib)   ...       0.03
freq.     955.37  E(vib)   ...       0.03
freq.    1003.24  E(vib)   ...       0.02
freq.    1038.89  E(vib)   ...       0.02
freq.    1054.65  E(vib)   ...       0.02
freq.    1057.17  E(vib)   ...       0.02
freq.    1127.33  E(vib)   ...       0.01
freq.    1161.41  E(vib)   ...       0.01
freq.    1206.05  E(vib)   ...       0.01
freq.    1239.99  E(vib)   ...       0.01
freq.    1373.53  E(vib)   ...       0.01
freq.    1393.37  E(vib)   ...       0.00
freq.    1393.86  E(vib)   ...       0.00
freq.    1428.02  E(vib)   ...       0.00
freq.    1447.30  E(vib)   ...       0.00
freq.    1814.40  E(vib)   ...       0.00
freq.    3222.55  E(vib)   ...       0.00
freq.    3242.49  E(vib)   ...       0.00
freq.    3254.07  E(vib)   ...       0.00
freq.    3256.08  E(vib)   ...       0.00
freq.    3258.59  E(vib)   ...       0.00
freq.    3262.29  E(vib)   ...       0.00
freq.    3354.02  E(vib)   ...       0.00
freq.    3354.77  E(vib)   ...       0.00
freq.    3363.66  E(vib)   ...       0.00
freq.    3377.80  E(vib)   ...       0.00

------------
INNER ENERGY
------------

The inner energy is: U= E(el) + E(ZPE) + E(vib) + E(rot) + E(trans)
    E(el)   - is the total energy from the electronic structure calculation
              = E(kin-el) + E(nuc-el) + E(el-el) + E(nuc-nuc)
    E(ZPE)  - the the zero temperature vibrational energy from the frequency calculation
    E(vib)  - the the finite temperature correction to E(ZPE) due to population
              of excited vibrational states
    E(rot)  - is the rotational thermal energy
    E(trans)- is the translational thermal energy

Summary of contributions to the inner energy U:
Electronic energy                ...   -234.06841380 Eh
Zero point energy                ...      0.13764429 Eh      86.37 kcal/mol
Thermal vibrational correction   ...      0.00320160 Eh       2.01 kcal/mol
Thermal rotational correction    ...      0.00141627 Eh       0.89 kcal/mol
Thermal translational correction ...      0.00141627 Eh       0.89 kcal/mol
-----------------------------------------------------------------------
Total thermal energy                   -233.92473537 Eh

Summary of corrections to the electronic energy:
(perhaps to be used in another calculation)
Total thermal correction                  0.00603414 Eh       3.79 kcal/mol
Non-thermal (ZPE) correction              0.13764429 Eh      86.37 kcal/mol
-----------------------------------------------------------------------
Total correction                          0.14367843 Eh      90.16 kcal/mol

--------
ENTHALPY
--------

The enthalpy is H = U + kB*T
                kB is Boltzmann's constant
Total free energy                 ...   -233.92473537 Eh
Thermal Enthalpy correction       ...      0.00094421 Eh       0.59 kcal/mol
-----------------------------------------------------------------------
Total Enthalpy                    ...   -233.92379116 Eh

Note: Only C1 symmetry has been detected, increase convergence thresholds
      if your molecule has a higher symmetry. Symmetry factor of 1.0 is
      used for the rotational entropy correction.

Note: Rotational entropy computed according to Herzberg
Infrared and Raman Spectra, Chapter V,1, Van Nostrand Reinhold, 1945
Point Group:  C1, Symmetry Number:   1
Rotational constants in cm-1:     0.142213     0.117710     0.070330

Vibrational entropy computed according to the QRRHO of S. Grimme
Chem.Eur.J. 2012 18 9955

-------
ENTROPY
-------

The entropy contributions are T*S = T*(S(el)+S(vib)+S(rot)+S(trans))
     S(el)   - electronic entropy
     S(vib)  - vibrational entropy
     S(rot)  - rotational entropy
     S(trans)- translational entropy
The entropies will be listed as multiplied by the temperature to get
units of energy

Electronic entropy                ...      0.00000000 Eh      0.00 kcal/mol
Vibrational entropy               ...      0.00502067 Eh      3.15 kcal/mol
Rotational entropy                ...      0.01269484 Eh      7.97 kcal/mol
Translational entropy             ...      0.01859270 Eh     11.67 kcal/mol
-----------------------------------------------------------------------
Final entropy term                ...      0.03630821 Eh     22.78 kcal/mol

In case the symmetry of your molecule has not been determined correctly
or in case you have a reason to use a different symmetry number we print
out the resulting rotational entropy values for sn=1,12 :
 --------------------------------------------------------
|  sn= 1 | S(rot)=       0.01269484 Eh      7.97 kcal/mol|
|  sn= 2 | S(rot)=       0.01204038 Eh      7.56 kcal/mol|
|  sn= 3 | S(rot)=       0.01165755 Eh      7.32 kcal/mol|
|  sn= 4 | S(rot)=       0.01138593 Eh      7.14 kcal/mol|
|  sn= 5 | S(rot)=       0.01117524 Eh      7.01 kcal/mol|
|  sn= 6 | S(rot)=       0.01100309 Eh      6.90 kcal/mol|
|  sn= 7 | S(rot)=       0.01085755 Eh      6.81 kcal/mol|
|  sn= 8 | S(rot)=       0.01073147 Eh      6.73 kcal/mol|
|  sn= 9 | S(rot)=       0.01062026 Eh      6.66 kcal/mol|
|  sn=10 | S(rot)=       0.01052078 Eh      6.60 kcal/mol|
|  sn=11 | S(rot)=       0.01043079 Eh      6.55 kcal/mol|
|  sn=12 | S(rot)=       0.01034864 Eh      6.49 kcal/mol|
 --------------------------------------------------------

-------------------
GIBBS FREE ENERGY
-------------------

The Gibbs free energy is G = H - T*S

Total enthalpy                    ...   -233.92379116 Eh
Total entropy correction          ...     -0.03630821 Eh    -22.78 kcal/mol
-----------------------------------------------------------------------

                             ****ORCA TERMINATED NORMALLY****
TOTAL RUN TIME: 0 days 0 hours 4 minutes 35 seconds 18 msec
