                         Program Version 5.0.4 -  RELEASE  -
|  1> ! OptTS Freq PBE0 RIJCOSX D3BJ def2-SVP def2/J
|  2> %geom
|  3> Calc_Hess true
|  4> Recalc_Hess 20
|  5> Trust -0.1
|  6> MaxIter 100
|  7> end
|  8> %geom
|  9> modify_internal
| 10> { B 2 3 A } end
| 11> end
| 12> %geom
| 13> modify_internal
| 14> { B 4 5 A } end
| 15> end
| 16> %output
| 17> xyzfile=True
| 18> end
| 19> %scf
| 20> maxiter 250
| 21> end
| 22> %output
| 23> Print[P_Hirshfeld] = 1
| 24> end
| 25> % maxcore
| 26> 4000
| 27> *xyz 0 1
| 28> C   -0.90753937  -1.36551530  -0.20013780
| 29> C    0.40018334  -1.57935780  -0.27054968
| 30> C    1.51051799  -0.63024290  -0.13962703
| 31> C    0.82611119   1.36423301  -0.20262756
| 32> C   -0.34725670   1.42470774   0.65999901
| 33> C   -1.63814496  -0.11142796   0.00854072
| 34> H   -1.56321004  -2.22542572  -0.31997668
| 35> H    0.73268682  -2.60204048  -0.43597677
| 36> H    2.20625781  -0.63521032  -0.96730685
| 37> H    2.00418506  -0.64778674   0.82357599
| 38> H    0.65187621   1.52951543  -1.25529875
| 39> H    1.72397916   1.84016526   0.17031030
| 40> H   -1.01863760   2.25889399   0.50153804
| 41> H   -0.18585637   1.18709515   1.70058876
| 42> H   -2.35285007  -0.13887504   0.81970496
| 43> H   -2.04224248   0.33118168  -0.89251665
| 44> *
| 45>
| 46>                          ****END OF INPUT****
 Total Charge           Charge          ....    0
 Multiplicity           Mult            ....    1
 Number of Electrons    NEL             ....   46
Dispersion correction           -0.012365049
FINAL SINGLE POINT ENERGY      -234.068413808831
Dispersion correction            ... done
Dispersion correction in the Hessian             ... done   (      3.5 sec)
Dispersion correction           -0.012370411
FINAL SINGLE POINT ENERGY      -234.066023637883
Dispersion correction            ... done
Dispersion correction           -0.012373976
FINAL SINGLE POINT ENERGY      -234.062985444277
FINAL SINGLE POINT ENERGY      -234.060923058216
FINAL SINGLE POINT ENERGY      -234.058309626029
FINAL SINGLE POINT ENERGY      -234.056032196571
FINAL SINGLE POINT ENERGY      -234.053941945660
FINAL SINGLE POINT ENERGY      -234.052091316748
FINAL SINGLE POINT ENERGY      -234.050468376026
FINAL SINGLE POINT ENERGY      -234.049024345213
FINAL SINGLE POINT ENERGY      -234.090339104746
FINAL SINGLE POINT ENERGY      -234.090445852764
FINAL SINGLE POINT ENERGY      -234.090537432335
FINAL SINGLE POINT ENERGY      -234.090614327126
FINAL SINGLE POINT ENERGY      -234.090676831272
FINAL SINGLE POINT ENERGY      -234.090725111898
FINAL SINGLE POINT ENERGY      -234.090759210915
Dispersion correction           -0.013041412
FINAL SINGLE POINT ENERGY      -234.090779109261
Dispersion correction            ... done
Dispersion correction           -0.013042009
FINAL SINGLE POINT ENERGY      -234.090784800633
Dispersion correction            ... done
                    ***********************HURRAY********************

CARTESIAN COORDINATES (ANGSTROEM)
---------------------------------
  C     -0.849617   -1.378180    0.182636
  C      0.533809   -1.538945   -0.041539
  C      1.259342   -0.643817   -0.792446
  C      0.913831    1.308879    0.372813
  C     -0.436512    1.464160    0.593186
  C     -1.552717   -0.316116   -0.336446
  H     -1.319219   -1.996021    0.954889
  H      1.070198   -2.273609    0.567785
  H      0.790438   -0.087740   -1.605360
  H      2.347837   -0.727334   -0.852502
  H      1.408901    1.865257   -0.426895
  H      1.565111    0.950566    1.171495
  H     -1.021649    2.145266   -0.029638
  H     -0.866292    1.229905    1.568363
  H     -2.595409   -0.151912   -0.051494
  H     -1.247992    0.149551   -1.274608

 Multiplicity           Mult            ....    1
 Number of Electrons    NEL             ....   46
 Basis Dimension        Dim             ....  134

ORBITAL ENERGIES
----------------

  NO   OCC          E(Eh)            E(eV)
   0   2.0000     -10.240589      -278.6606
   1   2.0000     -10.240494      -278.6580
   2   2.0000     -10.234886      -278.5054
   3   2.0000     -10.234362      -278.4912
   4   2.0000     -10.227944      -278.3165
   5   2.0000     -10.227591      -278.3069
   6   2.0000      -0.825037       -22.4504
   7   2.0000      -0.760294       -20.6887
   8   2.0000      -0.730982       -19.8910
   9   2.0000      -0.632991       -17.2246
  10   2.0000      -0.588275       -16.0078
  11   2.0000      -0.527370       -14.3505
  12   2.0000      -0.504836       -13.7373
  13   2.0000      -0.475975       -12.9519
  14   2.0000      -0.442089       -12.0299
  15   2.0000      -0.419730       -11.4214
  16   2.0000      -0.415739       -11.3128
  17   2.0000      -0.374027       -10.1778
  18   2.0000      -0.365505        -9.9459
  19   2.0000      -0.358091        -9.7442
  20   2.0000      -0.349543        -9.5116
  21   2.0000      -0.240236        -6.5372
  22   2.0000      -0.239806        -6.5254
  23   0.0000      -0.017278        -0.4701
  24   0.0000       0.015319         0.4168
  25   0.0000       0.071427         1.9436
  26   0.0000       0.084807         2.3077
  27   0.0000       0.109032         2.9669

MULLIKEN ATOMIC CHARGES
-----------------------
   0 C :   -0.071503
   1 C :   -0.071586
   2 C :   -0.066225
   3 C :   -0.114957
   4 C :   -0.114434
   5 C :   -0.066051
   6 H :    0.024708
   7 H :    0.024772
   8 H :    0.058622
   9 H :    0.053228
  10 H :    0.054723
  11 H :    0.061017
  12 H :    0.054852
  13 H :    0.060850
  14 H :    0.053288
  15 H :    0.058697
Sum of atomic charges:   -0.0000000

LOEWDIN ATOMIC CHARGES
----------------------
   0 C :   -0.064160
   1 C :   -0.064089
   2 C :   -0.026211
   3 C :   -0.060863
   4 C :   -0.060650
   5 C :   -0.026031
   6 H :    0.030633
   7 H :    0.030652
   8 H :    0.030195
   9 H :    0.029731
  10 H :    0.029753
  11 H :    0.030628
  12 H :    0.029835
  13 H :    0.030604
  14 H :    0.029746
  15 H :    0.030227

  Mayer bond orders larger than 0.100000
B(  0-C ,  1-C ) :   1.3303 B(  0-C ,  5-C ) :   1.6170 B(  0-C ,  6-H ) :   0.9716
B(  1-C ,  2-C ) :   1.6175 B(  1-C ,  7-H ) :   0.9715 B(  2-C ,  3-C ) :   0.3670
B(  2-C ,  5-C ) :   0.1336 B(  2-C ,  8-H ) :   0.9327 B(  2-C ,  9-H ) :   0.9538
B(  3-C ,  4-C ) :   1.6826 B(  3-C , 10-H ) :   0.9541 B(  3-C , 11-H ) :   0.9532
B(  4-C ,  5-C ) :   0.3680 B(  4-C , 12-H ) :   0.9540 B(  4-C , 13-H ) :   0.9532
B(  5-C , 14-H ) :   0.9537 B(  5-C , 15-H ) :   0.9326

Dispersion correction           -0.013041869
FINAL SINGLE POINT ENERGY      -234.090784820425

DIPOLE MOMENT
-------------
                                X             Y             Z
Electronic contribution:     -0.26940      -2.27241      -0.02828
Nuclear contribution   :      0.28946       2.42304       0.04804
                        -----------------------------------------
Total Dipole Moment    :      0.02007       0.15063       0.01976
                        -----------------------------------------
Magnitude (a.u.)       :      0.15324
Magnitude (Debye)      :      0.38951

Dispersion correction in the Hessian             ... done   (      3.3 sec)

VIBRATIONAL FREQUENCIES
-----------------------

Scaling factor for frequencies =  1.000000000  (already applied!)

   0:         0.00 cm**-1
   1:         0.00 cm**-1
   2:         0.00 cm**-1
   3:         0.00 cm**-1
   4:         0.00 cm**-1
   5:         0.00 cm**-1
   6:      -488.95 cm**-1 ***imaginary mode***
   7:       131.75 cm**-1
   8:       201.48 cm**-1
   9:       277.73 cm**-1
  10:       367.57 cm**-1
  11:       396.32 cm**-1
  12:       477.37 cm**-1
  13:       582.40 cm**-1
  14:       595.58 cm**-1
  15:       679.24 cm**-1
  16:       777.80 cm**-1
  17:       807.32 cm**-1
  18:       833.36 cm**-1
  19:       905.70 cm**-1
  20:       939.68 cm**-1
  21:       971.05 cm**-1
  22:       979.41 cm**-1
  23:       989.51 cm**-1
  24:       994.74 cm**-1
  25:      1013.55 cm**-1
  26:      1093.79 cm**-1
  27:      1101.71 cm**-1
  28:      1222.54 cm**-1
  29:      1262.87 cm**-1
  30:      1264.41 cm**-1
  31:      1314.08 cm**-1
  32:      1404.28 cm**-1
  33:      1435.78 cm**-1
  34:      1473.79 cm**-1
  35:      1547.70 cm**-1
  36:      1624.64 cm**-1
  37:      1627.32 cm**-1
  38:      3164.81 cm**-1
  39:      3170.51 cm**-1
  40:      3172.82 cm**-1
  41:      3179.24 cm**-1
  42:      3182.50 cm**-1
  43:      3197.70 cm**-1
  44:      3262.74 cm**-1
  45:      3267.96 cm**-1
  46:      3272.39 cm**-1
  47:      3283.16 cm**-1

IR SPECTRUM
-----------

 Mode   freq       eps      Int      T**2         TX        TY        TZ
       cm**-1   L/(mol*cm) km/mol    a.u.
----------------------------------------------------------------------------
  7:    131.75   0.000155    0.78  0.000367  ( 0.018768 -0.002160 -0.003128)
  8:    201.48   0.000277    1.40  0.000429  ( 0.020318 -0.002396 -0.003288)
  9:    277.73   0.000091    0.46  0.000102  (-0.001998 -0.006669 -0.007307)
 10:    367.57   0.000028    0.14  0.000023  (-0.000986 -0.004011 -0.002528)
 11:    396.32   0.000511    2.58  0.000403  (-0.019675  0.002311  0.003192)
 12:    477.37   0.000004    0.02  0.000003  ( 0.001602 -0.000245 -0.000218)
 13:    582.40   0.000000    0.00  0.000000  (-0.000451  0.000043  0.000029)
 14:    595.58   0.000313    1.58  0.000164  ( 0.002572  0.005898  0.011073)
 15:    679.24   0.005990   30.27  0.002752  ( 0.009936  0.039430  0.033145)
 16:    777.80   0.000120    0.61  0.000048  ( 0.006863 -0.000517 -0.000916)
 17:    807.32   0.000135    0.68  0.000052  (-0.000684  0.003098 -0.006485)
 18:    833.36   0.000100    0.51  0.000038  ( 0.000578  0.006026 -0.000985)
 19:    905.70   0.001352    6.83  0.000466  (-0.021137  0.002544  0.003535)
 20:    939.68   0.003280   16.58  0.001089  ( 0.005833  0.028947  0.014746)
 21:    971.05   0.001290    6.52  0.000415  ( 0.003874  0.014848  0.013383)
 22:    979.41   0.000104    0.52  0.000033  ( 0.005697  0.000775  0.000146)
 23:    989.51   0.008488   42.90  0.002677  (-0.009452 -0.040744 -0.030455)
 24:    994.74   0.000075    0.38  0.000024  ( 0.004778 -0.000511 -0.000721)
 25:   1013.55   0.001569    7.93  0.000483  (-0.021559  0.002454  0.003520)
 26:   1093.79   0.000192    0.97  0.000055  (-0.007248  0.000846  0.001184)
 27:   1101.71   0.000476    2.40  0.000135  (-0.000617 -0.010927  0.003875)
 28:   1222.54   0.000010    0.05  0.000002  (-0.001543  0.000106  0.000298)
 29:   1262.87   0.000153    0.77  0.000038  (-0.006050  0.000583  0.000950)
 30:   1264.41   0.000028    0.14  0.000007  ( 0.000175  0.002428  0.001040)
 31:   1314.08   0.000288    1.45  0.000068  ( 0.000740  0.008144 -0.001221)
 32:   1404.28   0.000442    2.23  0.000098  ( 0.009724 -0.001189 -0.001502)
 33:   1435.78   0.000575    2.91  0.000125  ( 0.010966 -0.001218 -0.001825)
 34:   1473.79   0.002059   10.41  0.000436  (-0.000656  0.014840 -0.014674)
 35:   1547.70   0.000270    1.37  0.000054  (-0.001429 -0.003834 -0.006142)
 36:   1624.64   0.000085    0.43  0.000016  ( 0.003845 -0.000624 -0.001050)
 37:   1627.32   0.000366    1.85  0.000070  (-0.001801 -0.002948 -0.007631)
 38:   3164.81   0.000773    3.90  0.000076  (-0.008549  0.000996  0.001455)
 39:   3170.51   0.001642    8.30  0.000162  (-0.001102  0.006671 -0.010766)
 40:   3172.82   0.000174    0.88  0.000017  ( 0.004068 -0.000436 -0.000614)
 41:   3179.24   0.000269    1.36  0.000026  (-0.000342 -0.004891  0.001529)
 42:   3182.50   0.001576    7.96  0.000155  (-0.012190  0.001517  0.001902)
 43:   3197.70   0.001990   10.06  0.000194  ( 0.000428  0.012131 -0.006847)
 44:   3262.74   0.000041    0.21  0.000004  ( 0.001962 -0.000209 -0.000213)
 45:   3267.96   0.000445    2.25  0.000043  ( 0.001285 -0.002917  0.005687)
 46:   3272.39   0.001254    6.34  0.000120  ( 0.010697 -0.001052 -0.002023)
 47:   3283.16   0.001066    5.39  0.000101  ( 0.000871 -0.004709  0.008854)

--------------------------
THERMOCHEMISTRY AT 298.15K
--------------------------

Temperature         ... 298.15 K
Pressure            ... 1.00 atm
Total Mass          ... 82.15 AMU

Throughout the following assumptions are being made:
  (1) The electronic state is orbitally nondegenerate
  (2) There are no thermally accessible electronically excited states
  (3) Hindered rotations indicated by low frequency modes are not
      treated as such but are treated as vibrations and this may
      cause some error
  (4) All equations used are the standard statistical mechanics
      equations for an ideal gas
  (5) All vibrations are strictly harmonic

freq.     131.75  E(vib)   ...       0.42
freq.     201.48  E(vib)   ...       0.35
freq.     277.73  E(vib)   ...       0.28
freq.     367.57  E(vib)   ...       0.21
freq.     396.32  E(vib)   ...       0.20
freq.     477.37  E(vib)   ...       0.15
freq.     582.40  E(vib)   ...       0.11
freq.     595.58  E(vib)   ...       0.10
freq.     679.24  E(vib)   ...       0.08
freq.     777.80  E(vib)   ...       0.05
freq.     807.32  E(vib)   ...       0.05
freq.     833.36  E(vib)   ...       0.04
freq.     905.70  E(vib)   ...       0.03
freq.     939.68  E(vib)   ...       0.03
freq.     971.05  E(vib)   ...       0.03
freq.     979.41  E(vib)   ...       0.03
freq.     989.51  E(vib)   ...       0.02
freq.     994.74  E(vib)   ...       0.02
freq.    1013.55  E(vib)   ...       0.02
freq.    1093.79  E(vib)   ...       0.02
freq.    1101.71  E(vib)   ...       0.02
freq.    1222.54  E(vib)   ...       0.01
freq.    1262.87  E(vib)   ...       0.01
freq.    1264.41  E(vib)   ...       0.01
freq.    1314.08  E(vib)   ...       0.01
freq.    1404.28  E(vib)   ...       0.00
freq.    1435.78  E(vib)   ...       0.00
freq.    1473.79  E(vib)   ...       0.00
freq.    1547.70  E(vib)   ...       0.00
freq.    1624.64  E(vib)   ...       0.00
freq.    1627.32  E(vib)   ...       0.00
freq.    3164.81  E(vib)   ...       0.00
freq.    3170.51  E(vib)   ...       0.00
freq.    3172.82  E(vib)   ...       0.00
freq.    3179.24  E(vib)   ...       0.00
freq.    3182.50  E(vib)   ...       0.00
freq.    3197.70  E(vib)   ...       0.00
freq.    3262.74  E(vib)   ...       0.00
freq.    3267.96  E(vib)   ...       0.00
freq.    3272.39  E(vib)   ...       0.00
freq.    3283.16  E(vib)   ...       0.00

------------
INNER ENERGY
------------

The inner energy is: U= E(el) + E(ZPE) + E(vib) + E(rot) + E(trans)
    E(el)   - is the total energy from the electronic structure calculation
              = E(kin-el) + E(nuc-el) + E(el-el) + E(nuc-nuc)
    E(ZPE)  - the the zero temperature vibrational energy from the frequency calculation
    E(vib)  - the the finite temperature correction to E(ZPE) due to population
              of excited vibrational states
    E(rot)  - is the rotational thermal energy
    E(trans)- is the translational thermal energy

Summary of contributions to the inner energy U:
Electronic energy                ...   -234.09078482 Eh
Zero point energy                ...      0.13998951 Eh      87.84 kcal/mol
Thermal vibrational correction   ...      0.00368638 Eh       2.31 kcal/mol
Thermal rotational correction    ...      0.00141627 Eh       0.89 kcal/mol
Thermal translational correction ...      0.00141627 Eh       0.89 kcal/mol
-----------------------------------------------------------------------
Total thermal energy                   -233.94427639 Eh

Summary of corrections to the electronic energy:
(perhaps to be used in another calculation)
Total thermal correction                  0.00651893 Eh       4.09 kcal/mol
Non-thermal (ZPE) correction              0.13998951 Eh      87.84 kcal/mol
-----------------------------------------------------------------------
Total correction                          0.14650843 Eh      91.94 kcal/mol

--------
ENTHALPY
--------

The enthalpy is H = U + kB*T
                kB is Boltzmann's constant
Total free energy                 ...   -233.94427639 Eh
Thermal Enthalpy correction       ...      0.00094421 Eh       0.59 kcal/mol
-----------------------------------------------------------------------
Total Enthalpy                    ...   -233.94333218 Eh

Note: Only C1 symmetry has been detected, increase convergence thresholds
      if your molecule has a higher symmetry. Symmetry factor of 1.0 is
      used for the rotational entropy correction.

Note: Rotational entropy computed according to Herzberg
Infrared and Raman Spectra, Chapter V,1, Van Nostrand Reinhold, 1945
Point Group:  C1, Symmetry Number:   1
Rotational constants in cm-1:     0.144521     0.114617     0.075185

Vibrational entropy computed according to the QRRHO of S. Grimme
Chem.Eur.J. 2012 18 9955

-------
ENTROPY
-------

The entropy contributions are T*S = T*(S(el)+S(vib)+S(rot)+S(trans))
     S(el)   - electronic entropy
     S(vib)  - vibrational entropy
     S(rot)  - rotational entropy
     S(trans)- translational entropy
The entropies will be listed as multiplied by the temperature to get
units of energy

Electronic entropy                ...      0.00000000 Eh      0.00 kcal/mol
Vibrational entropy               ...      0.00581932 Eh      3.65 kcal/mol
Rotational entropy                ...      0.01266829 Eh      7.95 kcal/mol
Translational entropy             ...      0.01859270 Eh     11.67 kcal/mol
-----------------------------------------------------------------------
Final entropy term                ...      0.03708031 Eh     23.27 kcal/mol

In case the symmetry of your molecule has not been determined correctly
or in case you have a reason to use a different symmetry number we print
out the resulting rotational entropy values for sn=1,12 :
 --------------------------------------------------------
|  sn= 1 | S(rot)=       0.01266829 Eh      7.95 kcal/mol|
|  sn= 2 | S(rot)=       0.01201383 Eh      7.54 kcal/mol|
|  sn= 3 | S(rot)=       0.01163100 Eh      7.30 kcal/mol|
|  sn= 4 | S(rot)=       0.01135938 Eh      7.13 kcal/mol|
|  sn= 5 | S(rot)=       0.01114869 Eh      7.00 kcal/mol|
|  sn= 6 | S(rot)=       0.01097655 Eh      6.89 kcal/mol|
|  sn= 7 | S(rot)=       0.01083100 Eh      6.80 kcal/mol|
|  sn= 8 | S(rot)=       0.01070492 Eh      6.72 kcal/mol|
|  sn= 9 | S(rot)=       0.01059371 Eh      6.65 kcal/mol|
|  sn=10 | S(rot)=       0.01049423 Eh      6.59 kcal/mol|
|  sn=11 | S(rot)=       0.01040424 Eh      6.53 kcal/mol|
|  sn=12 | S(rot)=       0.01032209 Eh      6.48 kcal/mol|
 --------------------------------------------------------

-------------------
GIBBS FREE ENERGY
-------------------

The Gibbs free energy is G = H - T*S

Total enthalpy                    ...   -233.94333218 Eh

                             ****ORCA TERMINATED NORMALLY****
TOTAL RUN TIME: 0 days 1 hours 36 minutes 26 seconds 587 msec
