   * xtb version 6.6.1 (8d0f1dd) compiled by 'conda@1efc2f54142f' on 2023-08-01
          program call               : /home/avcopan/code/other/saddle-search-practice/.pixi/envs/default/bin/xtb path_opt2_xtb.xyz --chrg 0 --uhf 0 --opt --input xcontrol_path_opt2_xtb

   ID    Z sym.   atoms
    1    6 C      1-6
    2    1 H      7-16
constraining bond 3 4 to    1.8082000 Å, actual value:    1.7580997 Å
constraining bond 5 6 to    1.8082000 Å, actual value:    1.7580942 Å

          :  Hamiltonian                  GFN2-xTB          :
 * total energy  :   -17.8576828 Eh     change       -0.1648921E-09 Eh
 * total energy  :   -17.8715837 Eh     change       -0.1390082E-01 Eh
 * total energy  :   -17.8806787 Eh     change       -0.9095014E-02 Eh
 * total energy  :   -17.8806993 Eh     change       -0.2067591E-04 Eh
 * total energy  :   -17.8805461 Eh     change        0.1532434E-03 Eh
 * total energy  :   -17.8806907 Eh     change       -0.1446236E-03 Eh
 * total energy  :   -17.8807001 Eh     change       -0.9336846E-05 Eh
 * total energy  :   -17.8807062 Eh     change       -0.6108936E-05 Eh
 * total energy  :   -17.8807118 Eh     change       -0.5613355E-05 Eh
 * total energy  :   -17.8807127 Eh     change       -0.9132966E-06 Eh
   *** GEOMETRY OPTIMIZATION CONVERGED AFTER 10 ITERATIONS ***

 final structure:
================
16
 xtb: 6.6.1 (8d0f1dd)
C           -0.89319616427171       -1.29094061888724       -0.19049572466807
C            0.41162735384016       -1.50434366869665       -0.26043565695267
C            1.48570139728217       -0.49359010000444       -0.11399783967552
C            0.80781003917097        1.16633842324722       -0.24661360082732
C           -0.39492767171116        1.23054547071251        0.63469154469679
C           -1.56935734173193        0.00866751997004        0.03447230573474
H           -1.56902683796785       -2.12957312045109       -0.31865437209133
H            0.76925422802544       -2.51433269480074       -0.42932332451833
H            2.23626480936881       -0.57680983917843       -0.89442159640369
H            1.95799146533017       -0.54064024849261        0.86437984405731
H            0.56993582560551        1.30827737113905       -1.29483441556654
H            1.60568423921525        1.83387274794167        0.06542636034806
H           -0.91369731290416        2.18347469211443        0.58543055710600
H           -0.17977441243074        0.95782771174526        1.66173359734965
H           -2.34757801008451       -0.05911067555449        0.78883577417102
H           -1.97662160673643        0.42022702919551       -0.88597345276010

          :  Hamiltonian                  GFN2-xTB          :
         :: total energy             -17.880712702035 Eh    ::
         :: gradient norm              0.000228012643 Eh/a0 ::
         :: HOMO-LUMO gap              5.124790640074 eV    ::
         :: SCC energy               -18.165438886421 Eh    ::
         :: -> dispersion             -0.009847859488 Eh    ::
         :: repulsion energy           0.283191862351 Eh    ::

    * Orbital Energies and Occupations

         #    Occupation            Energy/Eh            Energy/eV
      -------------------------------------------------------------
         1        2.0000           -0.6173016             -16.7976
       ...           ...                  ...                  ...
         5        2.0000           -0.5543572             -15.0848
         6        2.0000           -0.5216085             -14.1937
         7        2.0000           -0.5115076             -13.9188
         8        2.0000           -0.4923678             -13.3980
         9        2.0000           -0.4790500             -13.0356
        10        2.0000           -0.4694586             -12.7746
        11        2.0000           -0.4685791             -12.7507
        12        2.0000           -0.4635994             -12.6152
        13        2.0000           -0.4446798             -12.1004
        14        2.0000           -0.4375418             -11.9061
        15        2.0000           -0.4084340             -11.1141
        16        2.0000           -0.3964317             -10.7875
        17        2.0000           -0.3791355             -10.3168 (HOMO)
        18                         -0.1908029              -5.1920 (LUMO)
        19                         -0.1068601              -2.9078
        20                         -0.0842152              -2.2916
        21                          0.1171648               3.1882
        22                          0.1323783               3.6022
        23                          0.1567798               4.2662
        24                          0.1626288               4.4254
        25                          0.1840269               5.0076
        26                          0.1909402               5.1957
        27                          0.2230030               6.0682
        28                          0.2321801               6.3179
       ...                                ...                  ...
        34                          0.6432373              17.5034
      -------------------------------------------------------------
                  HL-Gap            0.1883326 Eh            5.1248 eV

     #   Z          covCN         q      C6AA      α(0)
     1   6 C        2.887    -0.037    28.926     8.818
     2   6 C        2.887    -0.037    28.926     8.818
     3   6 C        3.673    -0.065    21.997     6.722
     4   6 C        3.670    -0.060    21.924     6.712
     5   6 C        3.670    -0.060    21.924     6.712
     6   6 C        3.673    -0.065    21.997     6.722
     7   1 H        0.925     0.023     2.685     2.562
     8   1 H        0.925     0.023     2.685     2.562
     9   1 H        0.925     0.035     2.512     2.478
    10   1 H        0.925     0.040     2.451     2.448
    11   1 H        0.925     0.035     2.511     2.478
    12   1 H        0.925     0.029     2.602     2.522
    13   1 H        0.925     0.029     2.602     2.523
    14   1 H        0.925     0.035     2.511     2.478
    15   1 H        0.925     0.035     2.512     2.478
    16   1 H        0.925     0.040     2.450     2.448

Wiberg/Mayer (AO) data.
largest (>0.10) Wiberg bond orders for each atom

     #   Z sym  total        # sym  WBO       # sym  WBO       # sym  WBO
 ---------------------------------------------------------------------------
     1   6 C    3.992 --     2 C    1.918     6 C    1.045     7 H    0.960
     2   6 C    3.992 --     1 C    1.918     3 C    1.045     8 H    0.960
     3   6 C    3.994 --     2 C    1.045     9 H    0.973    10 H    0.966
                             4 C    0.956
     4   6 C    3.995 --     5 C    1.047    11 H    0.984    12 H    0.977
                             3 C    0.956
     5   6 C    3.995 --     4 C    1.047    14 H    0.984    13 H    0.977
                             6 C    0.956
     6   6 C    3.994 --     1 C    1.045    15 H    0.973    16 H    0.966
                             5 C    0.956
     7   1 H    0.999 --     1 C    0.960
     8   1 H    0.999 --     2 C    0.960
     9   1 H    0.999 --     3 C    0.973
    10   1 H    0.998 --     3 C    0.966
    11   1 H    0.999 --     4 C    0.984
    12   1 H    0.999 --     4 C    0.977
    13   1 H    0.999 --     5 C    0.977
    14   1 H    0.999 --     5 C    0.984
    15   1 H    0.999 --     6 C    0.973
    16   1 H    0.998 --     6 C    0.966
 ---------------------------------------------------------------------------

molecular dipole:
                 x           y           z       tot (Debye)
 q only:        0.017       0.099       0.016
   full:        0.018       0.105       0.017       0.274

           -------------------------------------------------
          | TOTAL ENERGY              -17.880712702035 Eh   |
          | GRADIENT NORM               0.000228012643 Eh/α |
          | HOMO-LUMO GAP               5.124790640074 eV   |
           -------------------------------------------------

 * finished run on 2025/05/23 at 11:18:28.878
