   * xtb version 6.6.1 (8d0f1dd) compiled by 'conda@1efc2f54142f' on 2023-08-01
          program call               : /home/avcopan/code/other/saddle-search-practice/.pixi/envs/default/bin/xtb path_opt9_xtb.xyz --chrg 0 --uhf 0 --opt --input xcontrol_path_opt9_xtb

   ID    Z sym.   atoms
    1    6 C      1-6
    2    1 H      7-16
constraining bond 3 4 to    2.0813000 Å, actual value:    2.0313200 Å
constraining bond 5 6 to    2.0814000 Å, actual value:    2.0314048 Å

          :  Hamiltonian                  GFN2-xTB          :
 * total energy  :   -17.7728785 Eh     change       -0.2523635E-09 Eh
 * total energy  :   -17.7867527 Eh     change       -0.1387420E-01 Eh
 * total energy  :   -17.7943851 Eh     change       -0.7632331E-02 Eh
 * total energy  :   -17.7944114 Eh     change       -0.2630996E-04 Eh
 * total energy  :   -17.7944150 Eh     change       -0.3606366E-05 Eh
 * total energy  :   -17.7944353 Eh     change       -0.2032937E-04 Eh
 * total energy  :   -17.7944410 Eh     change       -0.5715492E-05 Eh
 * total energy  :   -17.7944151 Eh     change        0.2591586E-04 Eh
 * total energy  :   -17.7944491 Eh     change       -0.3404540E-04 Eh
 * total energy  :   -17.7944603 Eh     change       -0.1111131E-04 Eh
 * total energy  :   -17.7944665 Eh     change       -0.6266604E-05 Eh
 * total energy  :   -17.7944767 Eh     change       -0.1022455E-04 Eh
 * total energy  :   -17.7944777 Eh     change       -0.9571812E-06 Eh
 * total energy  :   -17.7944785 Eh     change       -0.8092342E-06 Eh
   *** GEOMETRY OPTIMIZATION CONVERGED AFTER 14 ITERATIONS ***

 final structure:
================
16
 xtb: 6.6.1 (8d0f1dd)
C           -0.90556599835800       -1.35576852043709       -0.19812288450618
C            0.40155229741235       -1.56911625128763       -0.27090120007038
C            1.50909159054533       -0.61452501044146       -0.13589698226528
C            0.82561753137492        1.33831104929728       -0.20794010923639
C           -0.35435126368393        1.40029386039606        0.65464793001373
C           -1.63202835063090       -0.09745317846301        0.01378121541930
H           -1.56375307966053       -2.21307499460325       -0.31967555600299
H            0.73719622758485       -2.58959703910315       -0.44119036680881
H            2.21199818976790       -0.63010697514205       -0.95810619310752
H            1.99986108618362       -0.63699604731988        0.82911771861717
H            0.64710795806238        1.50065993017795       -1.26062441758670
H            1.70891007318145        1.84405738520166        0.16189641822463
H           -1.00317285637653        2.25478215601779        0.50685153494206
H           -0.18970695740067        1.16072004346429        1.69465250368682
H           -2.35206866305446       -0.13138585877422        0.82053370861677
H           -2.04062778494778        0.33912945101670       -0.88878331993623

          :  Hamiltonian                  GFN2-xTB          :
         :: total energy             -17.794478513457 Eh    ::
         :: gradient norm              0.000446029537 Eh/a0 ::
         :: HOMO-LUMO gap              3.816093761366 eV    ::
         :: SCC energy               -18.085629484897 Eh    ::
         :: -> dispersion             -0.010728062846 Eh    ::
         :: repulsion energy           0.289375758847 Eh    ::

    * Orbital Energies and Occupations

         #    Occupation            Energy/Eh            Energy/eV
      -------------------------------------------------------------
         1        2.0000           -0.6137353             -16.7006
       ...           ...                  ...                  ...
         5        2.0000           -0.5474315             -14.8964
         6        2.0000           -0.5178429             -14.0912
         7        2.0000           -0.5056326             -13.7590
         8        2.0000           -0.4918213             -13.3831
         9        2.0000           -0.4756433             -12.9429
        10        2.0000           -0.4729241             -12.8689
        11        2.0000           -0.4675096             -12.7216
        12        2.0000           -0.4598497             -12.5131
        13        2.0000           -0.4420817             -12.0297
        14        2.0000           -0.4377327             -11.9113
        15        2.0000           -0.3943016             -10.7295
        16        2.0000           -0.3841068             -10.4521
        17        2.0000           -0.3622475              -9.8573 (HOMO)
        18                         -0.2220086              -6.0412 (LUMO)
        19                         -0.1838866              -5.0038
        20                         -0.1756055              -4.7785
        21                          0.1151623               3.1337
        22                          0.1329611               3.6181
        23                          0.1566986               4.2640
        24                          0.1806040               4.9145
        25                          0.1998073               5.4370
        26                          0.2101328               5.7180
        27                          0.2186172               5.9489
        28                          0.2465573               6.7092
       ...                                ...                  ...
        34                          0.6493721              17.6703
      -------------------------------------------------------------
                  HL-Gap            0.1402389 Eh            3.8161 eV

     #   Z          covCN         q      C6AA      α(0)
     1   6 C        2.887    -0.035    28.862     8.808
     2   6 C        2.887    -0.035    28.861     8.808
     3   6 C        3.180    -0.073    29.369     8.847
     4   6 C        3.178    -0.065    29.186     8.821
     5   6 C        3.177    -0.065    29.187     8.821
     6   6 C        3.180    -0.073    29.369     8.847
     7   1 H        0.925     0.028     2.619     2.531
     8   1 H        0.925     0.028     2.618     2.530
     9   1 H        0.925     0.037     2.491     2.468
    10   1 H        0.925     0.040     2.448     2.447
    11   1 H        0.926     0.035     2.516     2.481
    12   1 H        0.925     0.034     2.537     2.491
    13   1 H        0.925     0.034     2.537     2.491
    14   1 H        0.926     0.035     2.516     2.481
    15   1 H        0.925     0.037     2.494     2.469
    16   1 H        0.925     0.040     2.446     2.446

Wiberg/Mayer (AO) data.
largest (>0.10) Wiberg bond orders for each atom

     #   Z sym  total        # sym  WBO       # sym  WBO       # sym  WBO
 ---------------------------------------------------------------------------
     1   6 C    3.992 --     2 C    1.903     6 C    1.065     7 H    0.949
     2   6 C    3.992 --     1 C    1.903     3 C    1.065     8 H    0.948
     3   6 C    3.989 --     2 C    1.065     9 H    0.972    10 H    0.967
                             4 C    0.889
     4   6 C    3.992 --     5 C    1.102    11 H    0.984    12 H    0.969
                             3 C    0.889
     5   6 C    3.992 --     4 C    1.102    14 H    0.984    13 H    0.969
                             6 C    0.889
     6   6 C    3.990 --     1 C    1.065    15 H    0.972    16 H    0.967
                             5 C    0.889
     7   1 H    0.999 --     1 C    0.949
     8   1 H    0.999 --     2 C    0.948
     9   1 H    0.999 --     3 C    0.972
    10   1 H    0.998 --     3 C    0.967
    11   1 H    0.999 --     4 C    0.984
    12   1 H    0.999 --     4 C    0.969
    13   1 H    0.999 --     5 C    0.969
    14   1 H    0.999 --     5 C    0.984
    15   1 H    0.999 --     6 C    0.972
    16   1 H    0.998 --     6 C    0.967
 ---------------------------------------------------------------------------

molecular dipole:
                 x           y           z       tot (Debye)
 q only:        0.011       0.061       0.009
   full:        0.011       0.056       0.008       0.145

           -------------------------------------------------
          | TOTAL ENERGY              -17.794478513457 Eh   |
          | GRADIENT NORM               0.000446029537 Eh/α |
          | HOMO-LUMO GAP               3.816093761366 eV   |
           -------------------------------------------------

 * finished run on 2025/05/23 at 11:18:31.365
