   * xtb version 6.6.1 (8d0f1dd) compiled by 'conda@1efc2f54142f' on 2023-08-01
          program call               : /home/avcopan/code/other/saddle-search-practice/.pixi/envs/default/bin/xtb path_opt4_xtb.xyz --chrg 0 --uhf 0 --opt --input xcontrol_path_opt4_xtb

   ID    Z sym.   atoms
    1    6 C      1-6
    2    1 H      7-16
constraining bond 3 4 to    1.8872000 Å, actual value:    1.8372101 Å
constraining bond 5 6 to    1.8873000 Å, actual value:    1.8372303 Å

          :  Hamiltonian                  GFN2-xTB          :
 * total energy  :   -17.8346303 Eh     change       -0.1694360E-09 Eh
 * total energy  :   -17.8481944 Eh     change       -0.1356408E-01 Eh
 * total energy  :   -17.8564131 Eh     change       -0.8218643E-02 Eh
 * total energy  :   -17.8564351 Eh     change       -0.2204605E-04 Eh
 * total energy  :   -17.8564407 Eh     change       -0.5586721E-05 Eh
 * total energy  :   -17.8564327 Eh     change        0.8003304E-05 Eh
 * total energy  :   -17.8564379 Eh     change       -0.5243746E-05 Eh
 * total energy  :   -17.8564365 Eh     change        0.1470742E-05 Eh
 * total energy  :   -17.8564500 Eh     change       -0.1350971E-04 Eh
 * total energy  :   -17.8564512 Eh     change       -0.1211317E-05 Eh
   *** GEOMETRY OPTIMIZATION CONVERGED AFTER 10 ITERATIONS ***

 final structure:
================
16
 xtb: 6.6.1 (8d0f1dd)
C           -0.89624543311788       -1.30673550944550       -0.19382235415584
C            0.40921572639517       -1.52047384059101       -0.26231638342260
C            1.49471656740134       -0.52783738128378       -0.11564628724123
C            0.80905273918897        1.21395952714300       -0.24158038063751
C           -0.38046532039931        1.27517695448829        0.64486776509850
C           -1.58902941288252       -0.01950686330001        0.02570696426518
H           -1.56659987361899       -2.15088599212327       -0.32208702229375
H            0.75982896716120       -2.53370430862951       -0.43219707993471
H            2.23673377654905       -0.59632502797141       -0.90373207698950
H            1.96590601363422       -0.56384947545849        0.86211267903568
H            0.57868592689068        1.35169782376280       -1.29060470536835
H            1.63081773914255        1.84783739447884        0.07563063067061
H           -0.93233825504159        2.20745139644460        0.58144091962999
H           -0.17367252568060        1.00088190926098        1.67171008024209
H           -2.35480227830335       -0.07918417806424        0.79149397938781
H           -1.99172435731893        0.40141757128872       -0.89075672828636

          :  Hamiltonian                  GFN2-xTB          :
         :: total energy             -17.856451196195 Eh    ::
         :: gradient norm              0.000333087986 Eh/a0 ::
         :: HOMO-LUMO gap              5.007658626999 eV    ::
         :: SCC energy               -18.142345533264 Eh    ::
         :: -> dispersion             -0.009890148585 Eh    ::
         :: repulsion energy           0.284115552808 Eh    ::

    * Orbital Energies and Occupations

         #    Occupation            Energy/Eh            Energy/eV
      -------------------------------------------------------------
         1        2.0000           -0.6155448             -16.7498
       ...           ...                  ...                  ...
         5        2.0000           -0.5518974             -15.0179
         6        2.0000           -0.5202509             -14.1567
         7        2.0000           -0.5093636             -13.8605
         8        2.0000           -0.4918626             -13.3843
         9        2.0000           -0.4766268             -12.9697
        10        2.0000           -0.4712252             -12.8227
        11        2.0000           -0.4683294             -12.7439
        12        2.0000           -0.4625647             -12.5870
        13        2.0000           -0.4417776             -12.0214
        14        2.0000           -0.4395522             -11.9608
        15        2.0000           -0.4039642             -10.9924
        16        2.0000           -0.3912707             -10.6470
        17        2.0000           -0.3773318             -10.2677 (HOMO)
        18                         -0.1933038              -5.2601 (LUMO)
        19                         -0.1428960              -3.8884
        20                         -0.1196411              -3.2556
        21                          0.1163793               3.1668
        22                          0.1336017               3.6355
        23                          0.1567013               4.2641
        24                          0.1697827               4.6200
        25                          0.1912301               5.2036
        26                          0.1983012               5.3961
        27                          0.2216787               6.0322
        28                          0.2353424               6.4040
       ...                                ...                  ...
        34                          0.6448775              17.5480
      -------------------------------------------------------------
                  HL-Gap            0.1840281 Eh            5.0077 eV

     #   Z          covCN         q      C6AA      α(0)
     1   6 C        2.887    -0.037    28.909     8.815
     2   6 C        2.887    -0.037    28.909     8.815
     3   6 C        3.561    -0.067    22.724     6.949
     4   6 C        3.558    -0.062    22.648     6.943
     5   6 C        3.558    -0.062    22.650     6.943
     6   6 C        3.561    -0.067    22.725     6.950
     7   1 H        0.925     0.024     2.668     2.555
     8   1 H        0.925     0.024     2.668     2.555
     9   1 H        0.925     0.036     2.507     2.476
    10   1 H        0.925     0.040     2.449     2.447
    11   1 H        0.925     0.036     2.509     2.477
    12   1 H        0.925     0.030     2.590     2.517
    13   1 H        0.925     0.030     2.590     2.517
    14   1 H        0.925     0.036     2.509     2.477
    15   1 H        0.925     0.036     2.508     2.477
    16   1 H        0.925     0.040     2.449     2.447

Wiberg/Mayer (AO) data.
largest (>0.10) Wiberg bond orders for each atom

     #   Z sym  total        # sym  WBO       # sym  WBO       # sym  WBO
 ---------------------------------------------------------------------------
     1   6 C    3.992 --     2 C    1.914     6 C    1.050     7 H    0.957
     2   6 C    3.992 --     1 C    1.914     3 C    1.050     8 H    0.957
     3   6 C    3.993 --     2 C    1.050     9 H    0.973    10 H    0.966
                             4 C    0.941
     4   6 C    3.994 --     5 C    1.058    11 H    0.984    12 H    0.975
                             3 C    0.941
     5   6 C    3.994 --     4 C    1.058    14 H    0.984    13 H    0.975
                             6 C    0.941
     6   6 C    3.993 --     1 C    1.050    15 H    0.974    16 H    0.966
                             5 C    0.941
     7   1 H    0.999 --     1 C    0.957
     8   1 H    0.999 --     2 C    0.957
     9   1 H    0.999 --     3 C    0.973
    10   1 H    0.998 --     3 C    0.966
    11   1 H    0.999 --     4 C    0.984
    12   1 H    0.999 --     4 C    0.975
    13   1 H    0.999 --     5 C    0.975
    14   1 H    0.999 --     5 C    0.984
    15   1 H    0.999 --     6 C    0.974
    16   1 H    0.998 --     6 C    0.966
 ---------------------------------------------------------------------------

molecular dipole:
                 x           y           z       tot (Debye)
 q only:        0.015       0.088       0.014
   full:        0.016       0.094       0.015       0.244

           -------------------------------------------------
          | TOTAL ENERGY              -17.856451196195 Eh   |
          | GRADIENT NORM               0.000333087986 Eh/α |
          | HOMO-LUMO GAP               5.007658626999 eV   |
           -------------------------------------------------

 * finished run on 2025/05/23 at 11:18:29.695
