   * xtb version 6.6.1 (8d0f1dd) compiled by 'conda@1efc2f54142f' on 2023-08-01
          program call               : /home/avcopan/code/other/saddle-search-practice/.pixi/envs/default/bin/xtb path_opt5_xtb.xyz --chrg 0 --uhf 0 --opt --input xcontrol_path_opt5_xtb

   ID    Z sym.   atoms
    1    6 C      1-6
    2    1 H      7-16
constraining bond 3 4 to    1.9261000 Å, actual value:    1.8761316 Å
constraining bond 5 6 to    1.9262000 Å, actual value:    1.8762194 Å

          :  Hamiltonian                  GFN2-xTB          :
 * total energy  :   -17.8225288 Eh     change       -0.7043397E-09 Eh
 * total energy  :   -17.8360867 Eh     change       -0.1355784E-01 Eh
 * total energy  :   -17.8440081 Eh     change       -0.7921462E-02 Eh
 * total energy  :   -17.8440309 Eh     change       -0.2274877E-04 Eh
 * total energy  :   -17.8440268 Eh     change        0.4112400E-05 Eh
 * total energy  :   -17.8440287 Eh     change       -0.1954542E-05 Eh
 * total energy  :   -17.8440265 Eh     change        0.2226983E-05 Eh
 * total energy  :   -17.8440452 Eh     change       -0.1873534E-04 Eh
 * total energy  :   -17.8440474 Eh     change       -0.2190505E-05 Eh
   *** GEOMETRY OPTIMIZATION CONVERGED AFTER 9 ITERATIONS ***

 final structure:
================
16
 xtb: 6.6.1 (8d0f1dd)
C           -0.89801444347033       -1.31517125427536       -0.19560658416391
C            0.40785745138256       -1.52907746040670       -0.26317449044598
C            1.49828947115635       -0.54448301311152       -0.11608736121401
C            0.81038218898393        1.23834847888616       -0.23940544412451
C           -0.37299613546222        1.29779587256515        0.64924848076163
C           -1.59834256718117       -0.03358758763015        0.02217869120922
H           -1.56546693315670       -2.16217913521678       -0.32452029326903
H            0.75499485900789       -2.54398001077760       -0.43363938481991
H            2.23651059780373       -0.60617639656021       -0.90771091622983
H            1.96908314349710       -0.57573171772077        0.86145540373349
H            0.58257768167153        1.37528791040808       -1.28855059723012
H            1.64420043753367        1.85480842127401        0.08000695291104
H           -0.94227408585271        2.21895493253457        0.58004283144910
H           -0.16941254584789        1.02319990260432        1.67627950861566
H           -2.35885794421637       -0.08982754983498        0.79261556102122
H           -1.99844117584937        0.39173860726179       -0.89292235820406

          :  Hamiltonian                  GFN2-xTB          :
         :: total energy             -17.844047416436 Eh    ::
         :: gradient norm              0.000848655873 Eh/a0 ::
         :: HOMO-LUMO gap              4.899800506022 eV    ::
         :: SCC energy               -18.130381320701 Eh    ::
         :: -> dispersion             -0.010008613870 Eh    ::
         :: repulsion energy           0.284520123238 Eh    ::

    * Orbital Energies and Occupations

         #    Occupation            Energy/Eh            Energy/eV
      -------------------------------------------------------------
         1        2.0000           -0.6149115             -16.7326
       ...           ...                  ...                  ...
         5        2.0000           -0.5507850             -14.9876
         6        2.0000           -0.5196940             -14.1416
         7        2.0000           -0.5084493             -13.8356
         8        2.0000           -0.4916038             -13.3772
         9        2.0000           -0.4755747             -12.9410
        10        2.0000           -0.4720424             -12.8449
        11        2.0000           -0.4682152             -12.7408
        12        2.0000           -0.4620403             -12.5728
        13        2.0000           -0.4406681             -11.9912
        14        2.0000           -0.4403606             -11.9828
        15        2.0000           -0.4017000             -10.9308
        16        2.0000           -0.3890596             -10.5869
        17        2.0000           -0.3757239             -10.2240 (HOMO)
        18                         -0.1956595              -5.3242 (LUMO)
        19                         -0.1569640              -4.2712
        20                         -0.1343614              -3.6562
        21                          0.1159772               3.1559
        22                          0.1336182               3.6359
        23                          0.1563100               4.2534
        24                          0.1724575               4.6928
        25                          0.1929395               5.2502
        26                          0.2020411               5.4978
        27                          0.2207663               6.0074
        28                          0.2365608               6.4371
       ...                                ...                  ...
        34                          0.6453633              17.5612
      -------------------------------------------------------------
                  HL-Gap            0.1800644 Eh            4.8998 eV

     #   Z          covCN         q      C6AA      α(0)
     1   6 C        2.887    -0.036    28.901     8.814
     2   6 C        2.887    -0.036    28.901     8.814
     3   6 C        3.493    -0.068    23.642     7.234
     4   6 C        3.490    -0.062    23.571     7.231
     5   6 C        3.489    -0.062    23.574     7.232
     6   6 C        3.492    -0.068    23.646     7.235
     7   1 H        0.925     0.025     2.660     2.551
     8   1 H        0.925     0.025     2.660     2.550
     9   1 H        0.925     0.036     2.506     2.476
    10   1 H        0.925     0.040     2.449     2.447
    11   1 H        0.925     0.036     2.509     2.477
    12   1 H        0.925     0.030     2.583     2.513
    13   1 H        0.925     0.030     2.584     2.514
    14   1 H        0.925     0.035     2.510     2.477
    15   1 H        0.925     0.036     2.506     2.475
    16   1 H        0.925     0.040     2.449     2.447

Wiberg/Mayer (AO) data.
largest (>0.10) Wiberg bond orders for each atom

     #   Z sym  total        # sym  WBO       # sym  WBO       # sym  WBO
 ---------------------------------------------------------------------------
     1   6 C    3.992 --     2 C    1.912     6 C    1.053     7 H    0.956
     2   6 C    3.992 --     1 C    1.912     3 C    1.053     8 H    0.956
     3   6 C    3.992 --     2 C    1.053     9 H    0.973    10 H    0.966
                             4 C    0.933
     4   6 C    3.993 --     5 C    1.064    11 H    0.984    12 H    0.974
                             3 C    0.933
     5   6 C    3.993 --     4 C    1.064    14 H    0.984    13 H    0.974
                             6 C    0.933
     6   6 C    3.992 --     1 C    1.053    15 H    0.973    16 H    0.966
                             5 C    0.933
     7   1 H    0.999 --     1 C    0.956
     8   1 H    0.999 --     2 C    0.956
     9   1 H    0.999 --     3 C    0.973
    10   1 H    0.998 --     3 C    0.966
    11   1 H    0.999 --     4 C    0.984
    12   1 H    0.999 --     4 C    0.974
    13   1 H    0.999 --     5 C    0.974
    14   1 H    0.999 --     5 C    0.984
    15   1 H    0.999 --     6 C    0.973
    16   1 H    0.998 --     6 C    0.966
 ---------------------------------------------------------------------------

molecular dipole:
                 x           y           z       tot (Debye)
 q only:        0.015       0.083       0.013
   full:        0.015       0.087       0.014       0.227

           -------------------------------------------------
          | TOTAL ENERGY              -17.844047416436 Eh   |
          | GRADIENT NORM               0.000848655873 Eh/α |
          | HOMO-LUMO GAP               4.899800506022 eV   |
           -------------------------------------------------

 * finished run on 2025/05/23 at 11:18:30.076
