   * xtb version 6.6.1 (8d0f1dd) compiled by 'conda@1efc2f54142f' on 2023-08-01
          program call               : /home/avcopan/code/other/saddle-search-practice/.pixi/envs/default/bin/xtb path_opt3_xtb.xyz --chrg 0 --uhf 0 --opt --input xcontrol_path_opt3_xtb

   ID    Z sym.   atoms
    1    6 C      1-6
    2    1 H      7-16
constraining bond 3 4 to    1.8480000 Å, actual value:    1.7979123 Å
constraining bond 5 6 to    1.8480000 Å, actual value:    1.7979269 Å

          :  Hamiltonian                  GFN2-xTB          :
 * total energy  :   -17.8463968 Eh     change       -0.1365237E-09 Eh
 * total energy  :   -17.8600756 Eh     change       -0.1367886E-01 Eh
 * total energy  :   -17.8686839 Eh     change       -0.8608270E-02 Eh
 * total energy  :   -17.8687066 Eh     change       -0.2269516E-04 Eh
 * total energy  :   -17.8687032 Eh     change        0.3432127E-05 Eh
 * total energy  :   -17.8686825 Eh     change        0.2063720E-04 Eh
 * total energy  :   -17.8687191 Eh     change       -0.3656018E-04 Eh
 * total energy  :   -17.8687166 Eh     change        0.2439168E-05 Eh
 * total energy  :   -17.8687219 Eh     change       -0.5231899E-05 Eh
 * total energy  :   -17.8687237 Eh     change       -0.1819747E-05 Eh
   *** GEOMETRY OPTIMIZATION CONVERGED AFTER 10 ITERATIONS ***

 final structure:
================
16
 xtb: 6.6.1 (8d0f1dd)
C           -0.89471123418823       -1.29897787726435       -0.19209232335923
C            0.41041499588572       -1.51249160121497       -0.26151513411650
C            1.49033132797113       -0.51091428571780       -0.11503930371076
C            0.80850107205548        1.19022433444303       -0.24389858401014
C           -0.38787874238977        1.25321552012840        0.63953242012192
C           -1.57928493687037       -0.00570993877146        0.03036828520072
H           -1.56774962285372       -2.14040896298043       -0.32041171038244
H            0.76439961534645       -2.52415716231640       -0.43090833472234
H            2.23649754525968       -0.58680183628361       -0.89942234895903
H            1.96211964216603       -0.55254482173166        0.86299740655788
H            0.57492613838669        1.33057698439326       -1.29256782526510
H            1.61852814289455        1.84074813620158        0.07128753572726
H           -0.92328398192770        2.19593017880367        0.58275445487724
H           -0.17715751557234        0.98013983027103        1.66666749033619
H           -2.35120384672878       -0.06948864541784        0.79052469446951
H           -1.98437859943483        0.41057014745754       -0.88804672276518

          :  Hamiltonian                  GFN2-xTB          :
         :: total energy             -17.868723690634 Eh    ::
         :: gradient norm              0.000366562167 Eh/a0 ::
         :: HOMO-LUMO gap              5.077766587095 eV    ::
         :: SCC energy               -18.153962332408 Eh    ::
         :: -> dispersion             -0.009847723867 Eh    ::
         :: repulsion energy           0.283555260705 Eh    ::

    * Orbital Energies and Occupations

         #    Occupation            Energy/Eh            Energy/eV
      -------------------------------------------------------------
         1        2.0000           -0.6163266             -16.7711
       ...           ...                  ...                  ...
         5        2.0000           -0.5530902             -15.0504
         6        2.0000           -0.5208688             -14.1736
         7        2.0000           -0.5103798             -13.8881
         8        2.0000           -0.4921282             -13.3915
         9        2.0000           -0.4777612             -13.0005
        10        2.0000           -0.4703671             -12.7993
        11        2.0000           -0.4684602             -12.7475
        12        2.0000           -0.4630850             -12.6012
        13        2.0000           -0.4431073             -12.0576
        14        2.0000           -0.4385777             -11.9343
        15        2.0000           -0.4062648             -11.0550
        16        2.0000           -0.3938180             -10.7163
        17        2.0000           -0.3784150             -10.2972 (HOMO)
        18                         -0.1918105              -5.2194 (LUMO)
        19                         -0.1262547              -3.4356
        20                         -0.1030269              -2.8035
        21                          0.1168007               3.1783
        22                          0.1332137               3.6249
        23                          0.1569276               4.2702
        24                          0.1664156               4.5284
        25                          0.1885126               5.1297
        26                          0.1938807               5.2758
        27                          0.2223526               6.0505
        28                          0.2337625               6.3610
       ...                                ...                  ...
        34                          0.6440497              17.5255
      -------------------------------------------------------------
                  HL-Gap            0.1866045 Eh            5.0778 eV

     #   Z          covCN         q      C6AA      α(0)
     1   6 C        2.887    -0.037    28.918     8.816
     2   6 C        2.887    -0.037    28.918     8.816
     3   6 C        3.622    -0.066    22.246     6.799
     4   6 C        3.619    -0.061    22.169     6.790
     5   6 C        3.619    -0.061    22.169     6.791
     6   6 C        3.622    -0.066    22.246     6.799
     7   1 H        0.925     0.024     2.677     2.559
     8   1 H        0.925     0.024     2.677     2.559
     9   1 H        0.925     0.036     2.509     2.477
    10   1 H        0.925     0.040     2.450     2.448
    11   1 H        0.925     0.035     2.510     2.478
    12   1 H        0.925     0.029     2.596     2.520
    13   1 H        0.925     0.029     2.596     2.520
    14   1 H        0.925     0.035     2.510     2.477
    15   1 H        0.925     0.035     2.510     2.477
    16   1 H        0.925     0.040     2.449     2.447

Wiberg/Mayer (AO) data.
largest (>0.10) Wiberg bond orders for each atom

     #   Z sym  total        # sym  WBO       # sym  WBO       # sym  WBO
 ---------------------------------------------------------------------------
     1   6 C    3.992 --     2 C    1.916     6 C    1.048     7 H    0.959
     2   6 C    3.992 --     1 C    1.916     3 C    1.048     8 H    0.959
     3   6 C    3.994 --     2 C    1.048     9 H    0.973    10 H    0.966
                             4 C    0.948
     4   6 C    3.994 --     5 C    1.053    11 H    0.984    12 H    0.976
                             3 C    0.948
     5   6 C    3.994 --     4 C    1.053    14 H    0.984    13 H    0.976
                             6 C    0.948
     6   6 C    3.994 --     1 C    1.048    15 H    0.974    16 H    0.966
                             5 C    0.948
     7   1 H    0.999 --     1 C    0.959
     8   1 H    0.999 --     2 C    0.959
     9   1 H    0.999 --     3 C    0.973
    10   1 H    0.998 --     3 C    0.966
    11   1 H    0.999 --     4 C    0.984
    12   1 H    0.999 --     4 C    0.976
    13   1 H    0.999 --     5 C    0.976
    14   1 H    0.999 --     5 C    0.984
    15   1 H    0.999 --     6 C    0.974
    16   1 H    0.998 --     6 C    0.966
 ---------------------------------------------------------------------------

molecular dipole:
                 x           y           z       tot (Debye)
 q only:        0.016       0.094       0.015
   full:        0.017       0.100       0.016       0.260

           -------------------------------------------------
          | TOTAL ENERGY              -17.868723690634 Eh   |
          | GRADIENT NORM               0.000366562167 Eh/α |
          | HOMO-LUMO GAP               5.077766587095 eV   |
           -------------------------------------------------

 * finished run on 2025/05/23 at 11:18:29.298
