   * xtb version 6.6.1 (8d0f1dd) compiled by 'conda@1efc2f54142f' on 2023-08-01
          program call               : /home/avcopan/code/other/saddle-search-practice/.pixi/envs/default/bin/xtb path_opt1_xtb.xyz --chrg 0 --uhf 0 --opt --input xcontrol_path_opt1_xtb

   ID    Z sym.   atoms
    1    6 C      1-6
    2    1 H      7-16
constraining bond 3 4 to    1.7677000 Å, actual value:    1.7170886 Å
constraining bond 5 6 to    1.7677000 Å, actual value:    1.7171739 Å

          :  Hamiltonian                  GFN2-xTB          :
 * total energy  :   -17.8676900 Eh     change       -0.1833627E-09 Eh
 * total energy  :   -17.8822748 Eh     change       -0.1458483E-01 Eh
 * total energy  :   -17.8921931 Eh     change       -0.9918324E-02 Eh
 * total energy  :   -17.8922105 Eh     change       -0.1735119E-04 Eh
 * total energy  :   -17.8919618 Eh     change        0.2486126E-03 Eh
 * total energy  :   -17.8921905 Eh     change       -0.2287050E-03 Eh
 * total energy  :   -17.8921842 Eh     change        0.6380613E-05 Eh
 * total energy  :   -17.8922204 Eh     change       -0.3619702E-04 Eh
 * total energy  :   -17.8922216 Eh     change       -0.1208983E-05 Eh
 * total energy  :   -17.8922235 Eh     change       -0.1962481E-05 Eh
   *** GEOMETRY OPTIMIZATION CONVERGED AFTER 10 ITERATIONS ***

 final structure:
================
16
 xtb: 6.6.1 (8d0f1dd)
C           -0.89171081984198       -1.28368487040730       -0.18868733245137
C            0.41281708383121       -1.49686933108489       -0.25989392351865
C            1.48072513638814       -0.47627573143799       -0.11423024530064
C            0.80777950642400        1.14242707877900       -0.24776363354423
C           -0.40316724762687        1.20901560182027        0.62911911266272
C           -1.55870675226505        0.02257153527611        0.03924224353681
H           -1.57044146905443       -2.11954867873931       -0.31632646126363
H            0.77395655319210       -2.50524548273383       -0.42837290274620
H            2.23519855314021       -0.56703825814773       -0.89116262976527
H            1.95432741784604       -0.53004102223262        0.86423877063854
H            0.56742876518319        1.28875878160543       -1.29578223531319
H            1.59389570122729        1.82541716789099        0.06303667663880
H           -0.90554908596039        2.17164265889477        0.58446621495883
H           -0.18401837223605        0.93972538313109        1.65711215216870
H           -2.34284800754832       -0.04946591607918        0.78835809232799
H           -1.96960696269912        0.42850108346524       -0.88315389902923

          :  Hamiltonian                  GFN2-xTB          :
         :: total energy             -17.892223534544 Eh    ::
         :: gradient norm              0.000601742885 Eh/a0 ::
         :: HOMO-LUMO gap              5.158287894274 eV    ::
         :: SCC energy               -18.176476953820 Eh    ::
         :: -> dispersion             -0.009866977930 Eh    ::
         :: repulsion energy           0.282910661521 Eh    ::

    * Orbital Energies and Occupations

         #    Occupation            Energy/Eh            Energy/eV
      -------------------------------------------------------------
         1        2.0000           -0.6184771             -16.8296
       ...           ...                  ...                  ...
         5        2.0000           -0.5556963             -15.1213
         6        2.0000           -0.5223875             -14.2149
         7        2.0000           -0.5127198             -13.9518
         8        2.0000           -0.4926418             -13.4055
         9        2.0000           -0.4804662             -13.0742
        10        2.0000           -0.4687244             -12.7546
        11        2.0000           -0.4685346             -12.7495
        12        2.0000           -0.4641091             -12.6291
        13        2.0000           -0.4464820             -12.1494
        14        2.0000           -0.4362889             -11.8720
        15        2.0000           -0.4105531             -11.1717
        16        2.0000           -0.3989442             -10.8558
        17        2.0000           -0.3796252             -10.3301 (HOMO)
        18                         -0.1900616              -5.1718 (LUMO)
        19                         -0.0847118              -2.3051
        20                         -0.0626152              -1.7038
        21                          0.1175629               3.1991
        22                          0.1309507               3.5633
        23                          0.1564517               4.2573
        24                          0.1580950               4.3020
        25                          0.1774930               4.8298
        26                          0.1890907               5.1454
        27                          0.2236165               6.0849
        28                          0.2299212               6.2565
       ...                                ...                  ...
        34                          0.6423651              17.4796
      -------------------------------------------------------------
                  HL-Gap            0.1895636 Eh            5.1583 eV

     #   Z          covCN         q      C6AA      α(0)
     1   6 C        2.887    -0.038    28.935     8.819
     2   6 C        2.887    -0.038    28.935     8.819
     3   6 C        3.714    -0.064    21.858     6.680
     4   6 C        3.711    -0.060    21.791     6.671
     5   6 C        3.711    -0.060    21.791     6.671
     6   6 C        3.714    -0.064    21.857     6.680
     7   1 H        0.925     0.023     2.693     2.566
     8   1 H        0.925     0.023     2.693     2.566
     9   1 H        0.925     0.035     2.514     2.479
    10   1 H        0.925     0.040     2.453     2.449
    11   1 H        0.925     0.035     2.513     2.479
    12   1 H        0.925     0.028     2.608     2.525
    13   1 H        0.925     0.029     2.607     2.525
    14   1 H        0.925     0.035     2.513     2.479
    15   1 H        0.925     0.035     2.515     2.480
    16   1 H        0.925     0.040     2.452     2.449

Wiberg/Mayer (AO) data.
largest (>0.10) Wiberg bond orders for each atom

     #   Z sym  total        # sym  WBO       # sym  WBO       # sym  WBO
 ---------------------------------------------------------------------------
     1   6 C    3.991 --     2 C    1.920     6 C    1.042     7 H    0.962
     2   6 C    3.991 --     1 C    1.920     3 C    1.042     8 H    0.962
     3   6 C    3.995 --     2 C    1.042     9 H    0.973    10 H    0.965
                             4 C    0.963
     4   6 C    3.995 --     5 C    1.042    11 H    0.983    12 H    0.978
                             3 C    0.963
     5   6 C    3.995 --     4 C    1.042    14 H    0.983    13 H    0.978
                             6 C    0.963
     6   6 C    3.995 --     1 C    1.042    15 H    0.973    16 H    0.965
                             5 C    0.963
     7   1 H    0.999 --     1 C    0.962
     8   1 H    0.999 --     2 C    0.962
     9   1 H    0.999 --     3 C    0.973
    10   1 H    0.998 --     3 C    0.965
    11   1 H    0.999 --     4 C    0.983
    12   1 H    0.999 --     4 C    0.978
    13   1 H    0.999 --     5 C    0.978
    14   1 H    0.999 --     5 C    0.983
    15   1 H    0.999 --     6 C    0.973
    16   1 H    0.998 --     6 C    0.965
 ---------------------------------------------------------------------------

molecular dipole:
                 x           y           z       tot (Debye)
 q only:        0.018       0.104       0.017
   full:        0.019       0.110       0.018       0.287

           -------------------------------------------------
          | TOTAL ENERGY              -17.892223534544 Eh   |
          | GRADIENT NORM               0.000601742885 Eh/α |
          | HOMO-LUMO GAP               5.158287894274 eV   |
           -------------------------------------------------

 * finished run on 2025/05/23 at 11:18:28.499
