   * xtb version 6.6.1 (8d0f1dd) compiled by 'conda@1efc2f54142f' on 2023-08-01
          program call               : /home/avcopan/code/other/saddle-search-practice/.pixi/envs/default/bin/xtb path_opt11_xtb.xyz --chrg 0 --uhf 0 --opt --input xcontrol_path_opt11_xtb

   ID    Z sym.   atoms
    1    6 C      1-6
    2    1 H      7-16
constraining bond 3 4 to    2.1596000 Å, actual value:    2.1095728 Å
constraining bond 5 6 to    2.1596000 Å, actual value:    2.1096204 Å

          :  Hamiltonian                  GFN2-xTB          :
 * total energy  :   -17.7482852 Eh     change       -0.1561418E-10 Eh
 * total energy  :   -17.7628756 Eh     change       -0.1459042E-01 Eh
 * total energy  :   -17.7704683 Eh     change       -0.7592736E-02 Eh
 * total energy  :   -17.7705017 Eh     change       -0.3335602E-04 Eh
 * total energy  :   -17.7705150 Eh     change       -0.1328578E-04 Eh
 * total energy  :   -17.7705342 Eh     change       -0.1919435E-04 Eh
 * total energy  :   -17.7705420 Eh     change       -0.7777687E-05 Eh
 * total energy  :   -17.7705644 Eh     change       -0.2246639E-04 Eh
 * total energy  :   -17.7705829 Eh     change       -0.1851781E-04 Eh
 * total energy  :   -17.7706428 Eh     change       -0.5981697E-04 Eh
 * total energy  :   -17.8168914 Eh     change       -0.2232551E-03 Eh
 * total energy  :   -17.8171146 Eh     change       -0.2232496E-03 Eh
 * total energy  :   -17.8172373 Eh     change       -0.1226315E-03 Eh
 * total energy  :   -17.8172958 Eh     change       -0.5857361E-04 Eh
 * total energy  :   -17.8173189 Eh     change       -0.2309261E-04 Eh
 * total energy  :   -17.8173349 Eh     change       -0.1601734E-04 Eh
 * total energy  :   -17.8173459 Eh     change       -0.1098022E-04 Eh
 * total energy  :   -17.8173561 Eh     change       -0.1021328E-04 Eh
 * total energy  :   -17.8173587 Eh     change       -0.2571869E-05 Eh
   *** GEOMETRY OPTIMIZATION CONVERGED AFTER 45 ITERATIONS ***

 final structure:
================
16
 xtb: 6.6.1 (8d0f1dd)
C           -0.85076891936439       -1.33038604998459        0.17952633564058
C            0.50319163948814       -1.50746916370540       -0.05738994586599
C            1.22557721320810       -0.59018497973600       -0.79954691285688
C            0.93078287587543        1.20476459366653        0.35943957688997
C           -0.42564190308889        1.38273538569760        0.59690141455794
C           -1.52784091069545       -0.23063570517838       -0.31647364841129
H           -1.32627627376328       -1.94111884680168        0.93512616248418
H            1.03521915920020       -2.24953644075746        0.52266858530510
H            0.77127750496464       -0.11271561997788       -1.65064712249956
H            2.29896091856170       -0.68363532110650       -0.85305212598539
H            1.41859365320334        1.80628487428261       -0.38920998540085
H            1.56173677164175        0.85814236950332        1.16014521419603
H           -0.96815857202543        2.11928170746950        0.02816765629257
H           -0.81801136632273        1.17078359861012        1.57713592511140
H           -2.54450224212914       -0.05330189372336       -0.00220033415111
H           -1.28406954875246        0.15689149174228       -1.29037079530690

          :  Hamiltonian                  GFN2-xTB          :
         :: total energy             -17.817358713035 Eh    ::
         :: gradient norm              0.000417348109 Eh/a0 ::
         :: HOMO-LUMO gap              4.068638257577 eV    ::
         :: SCC energy               -18.140139344309 Eh    ::
         :: -> dispersion             -0.011216980691 Eh    ::
         :: repulsion energy           0.322646110129 Eh    ::

    * Orbital Energies and Occupations

         #    Occupation            Energy/Eh            Energy/eV
      -------------------------------------------------------------
         1        2.0000           -0.6192023             -16.8494
       ...           ...                  ...                  ...
         5        2.0000           -0.5489462             -14.9376
         6        2.0000           -0.5210673             -14.1790
         7        2.0000           -0.5152592             -14.0209
         8        2.0000           -0.5039404             -13.7129
         9        2.0000           -0.4764212             -12.9641
        10        2.0000           -0.4674951             -12.7212
        11        2.0000           -0.4638356             -12.6216
        12        2.0000           -0.4576980             -12.4546
        13        2.0000           -0.4397944             -11.9674
        14        2.0000           -0.4286386             -11.6638
        15        2.0000           -0.4209722             -11.4552
        16        2.0000           -0.3786219             -10.3028
        17        2.0000           -0.3753686             -10.2143 (HOMO)
        18                         -0.2258489              -6.1457 (LUMO)
        19                         -0.2089459              -5.6857
        20                         -0.1166410              -3.1740
        21                          0.1317164               3.5842
        22                          0.1389428               3.7808
        23                          0.1517848               4.1303
        24                          0.1729989               4.7075
        25                          0.1730862               4.7099
        26                          0.2019211               5.4946
        27                          0.2068825               5.6296
        28                          0.2984238               8.1205
       ...                                ...                  ...
        34                          0.5621878              15.2979
      -------------------------------------------------------------
                  HL-Gap            0.1495197 Eh            4.0686 eV

     #   Z          covCN         q      C6AA      α(0)
     1   6 C        2.900    -0.037    28.922     8.818
     2   6 C        2.900    -0.037    28.921     8.818
     3   6 C        3.045    -0.070    29.697     8.938
     4   6 C        3.031    -0.073    29.788     8.952
     5   6 C        3.031    -0.073    29.787     8.952
     6   6 C        3.045    -0.070    29.697     8.938
     7   1 H        0.925     0.025     2.658     2.549
     8   1 H        0.925     0.025     2.658     2.549
     9   1 H        0.926     0.047     2.353     2.399
    10   1 H        0.926     0.033     2.547     2.496
    11   1 H        0.926     0.039     2.456     2.451
    12   1 H        0.926     0.035     2.510     2.477
    13   1 H        0.926     0.039     2.456     2.451
    14   1 H        0.926     0.035     2.510     2.477
    15   1 H        0.926     0.033     2.548     2.496
    16   1 H        0.926     0.047     2.354     2.399

Wiberg/Mayer (AO) data.
largest (>0.10) Wiberg bond orders for each atom

     #   Z sym  total        # sym  WBO       # sym  WBO       # sym  WBO
 ---------------------------------------------------------------------------
     1   6 C    3.990 --     6 C    1.463     2 C    1.427     7 H    0.968
     2   6 C    3.990 --     3 C    1.463     1 C    1.427     8 H    0.968
     3   6 C    3.992 --     2 C    1.463    10 H    0.983     9 H    0.967
                             4 C    0.430     6 C    0.119
     4   6 C    3.993 --     5 C    1.493    12 H    0.979    11 H    0.976
                             3 C    0.430
     5   6 C    3.993 --     4 C    1.493    14 H    0.979    13 H    0.976
                             6 C    0.430
     6   6 C    3.992 --     1 C    1.463    15 H    0.983    16 H    0.967
                             5 C    0.430     3 C    0.119
     7   1 H    0.999 --     1 C    0.968
     8   1 H    0.999 --     2 C    0.968
     9   1 H    0.998 --     3 C    0.967
    10   1 H    0.999 --     3 C    0.983
    11   1 H    0.998 --     4 C    0.976
    12   1 H    0.999 --     4 C    0.979
    13   1 H    0.998 --     5 C    0.976
    14   1 H    0.999 --     5 C    0.979
    15   1 H    0.999 --     6 C    0.983
    16   1 H    0.998 --     6 C    0.967
 ---------------------------------------------------------------------------

molecular dipole:
                 x           y           z       tot (Debye)
 q only:        0.004       0.139      -0.083
   full:        0.014       0.179      -0.053       0.475

           -------------------------------------------------
          | TOTAL ENERGY              -17.817358713035 Eh   |
          | GRADIENT NORM               0.000417348109 Eh/α |
          | HOMO-LUMO GAP               4.068638257577 eV   |
           -------------------------------------------------

 * finished run on 2025/05/23 at 11:18:32.174
