   * xtb version 6.6.1 (8d0f1dd) compiled by 'conda@1efc2f54142f' on 2023-08-01
          program call               : /home/avcopan/code/other/saddle-search-practice/.pixi/envs/default/bin/xtb path_opt10_xtb.xyz --chrg 0 --uhf 0 --opt --input xcontrol_path_opt10_xtb

   ID    Z sym.   atoms
    1    6 C      1-6
    2    1 H      7-16
constraining bond 3 4 to    2.1203000 Å, actual value:    2.0702429 Å
constraining bond 5 6 to    2.1204000 Å, actual value:    2.0703638 Å

          :  Hamiltonian                  GFN2-xTB          :
 * total energy  :   -17.7604443 Eh     change       -0.1053294E-08 Eh
 * total energy  :   -17.7746937 Eh     change       -0.1424940E-01 Eh
 * total energy  :   -17.7822904 Eh     change       -0.7596701E-02 Eh
 * total energy  :   -17.7823176 Eh     change       -0.2713348E-04 Eh
 * total energy  :   -17.7823187 Eh     change       -0.1104422E-05 Eh
 * total energy  :   -17.7823323 Eh     change       -0.1363830E-04 Eh
 * total energy  :   -17.7822827 Eh     change        0.4959185E-04 Eh
 * total energy  :   -17.7823369 Eh     change       -0.5414539E-04 Eh
 * total energy  :   -17.7823461 Eh     change       -0.9229822E-05 Eh
 * total energy  :   -17.7823489 Eh     change       -0.2803032E-05 Eh
   *** GEOMETRY OPTIMIZATION CONVERGED AFTER 10 ITERATIONS ***

 final structure:
================
16
 xtb: 6.6.1 (8d0f1dd)
C           -0.90753937443359       -1.36551530289240       -0.20013779980172
C            0.40018333893529       -1.57935780080718       -0.27054968078541
C            1.51051799091776       -0.63024289565389       -0.13962703482232
C            0.82611119312779        1.36423300994457       -0.20262756269914
C           -0.34725670311586        1.42470774096488        0.65999901109019
C           -1.63814495878151       -0.11142796302486        0.00854071705920
H           -1.56321003838261       -2.22542572301728       -0.31997667608505
H            0.73268681839678       -2.60204047607643       -0.43597677258102
H            2.20625781074753       -0.63521031941077       -0.96730685224339
H            2.00418505773357       -0.64778673877784        0.82357598617278
H            0.65187621294639        1.52951543202223       -1.25529874599648
H            1.72397915982598        1.84016526285007        0.17031030044659
H           -1.01863759707163        2.25889399265190        0.50153804493827
H           -0.18585636823398        1.18709514873547        1.70058875983182
H           -2.35285006620796       -0.13887504366073        0.81970495501646
H           -2.04224247640396        0.33118167615226       -0.89251664954078

          :  Hamiltonian                  GFN2-xTB          :
         :: total energy             -17.782348906997 Eh    ::
         :: gradient norm              0.000730462708 Eh/a0 ::
         :: HOMO-LUMO gap              3.454149742959 eV    ::
         :: SCC energy               -18.074721830626 Eh    ::
         :: -> dispersion             -0.010724012556 Eh    ::
         :: repulsion energy           0.290688975568 Eh    ::

    * Orbital Energies and Occupations

         #    Occupation            Energy/Eh            Energy/eV
      -------------------------------------------------------------
         1        2.0000           -0.6136336             -16.6978
       ...           ...                  ...                  ...
         5        2.0000           -0.5467725             -14.8784
         6        2.0000           -0.5176426             -14.0858
         7        2.0000           -0.5051843             -13.7468
         8        2.0000           -0.4918282             -13.3833
         9        2.0000           -0.4763336             -12.9617
        10        2.0000           -0.4723732             -12.8539
        11        2.0000           -0.4673938             -12.7184
        12        2.0000           -0.4592876             -12.4979
        13        2.0000           -0.4423638             -12.0373
        14        2.0000           -0.4373302             -11.9004
        15        2.0000           -0.3926472             -10.6845
        16        2.0000           -0.3836980             -10.4410
        17        2.0000           -0.3577606              -9.7352 (HOMO)
        18                         -0.2308229              -6.2810 (LUMO)
        19                         -0.1857360              -5.0541
        20                         -0.1829693              -4.9788
        21                          0.1152158               3.1352
        22                          0.1324618               3.6045
        23                          0.1561417               4.2488
        24                          0.1821369               4.9562
        25                          0.2015300               5.4839
        26                          0.2099734               5.7137
        27                          0.2177225               5.9245
        28                          0.2494136               6.7869
       ...                                ...                  ...
        34                          0.6494835              17.6733
      -------------------------------------------------------------
                  HL-Gap            0.1269377 Eh            3.4541 eV

     #   Z          covCN         q      C6AA      α(0)
     1   6 C        2.887    -0.034    28.852     8.806
     2   6 C        2.887    -0.034    28.852     8.806
     3   6 C        3.107    -0.075    29.714     8.931
     4   6 C        3.105    -0.066    29.500     8.899
     5   6 C        3.105    -0.066    29.500     8.899
     6   6 C        3.107    -0.075    29.711     8.931
     7   1 H        0.925     0.028     2.609     2.526
     8   1 H        0.925     0.029     2.607     2.525
     9   1 H        0.925     0.037     2.486     2.466
    10   1 H        0.925     0.040     2.450     2.447
    11   1 H        0.926     0.035     2.517     2.481
    12   1 H        0.925     0.035     2.523     2.484
    13   1 H        0.925     0.035     2.522     2.483
    14   1 H        0.926     0.035     2.517     2.481
    15   1 H        0.925     0.037     2.491     2.468
    16   1 H        0.925     0.040     2.445     2.445

Wiberg/Mayer (AO) data.
largest (>0.10) Wiberg bond orders for each atom

     #   Z sym  total        # sym  WBO       # sym  WBO       # sym  WBO
 ---------------------------------------------------------------------------
     1   6 C    3.992 --     2 C    1.900     6 C    1.069     7 H    0.947
     2   6 C    3.992 --     1 C    1.900     3 C    1.068     8 H    0.946
     3   6 C    3.989 --     2 C    1.068     9 H    0.971    10 H    0.967
                             4 C    0.873
     4   6 C    3.992 --     5 C    1.117    11 H    0.984    12 H    0.968
                             3 C    0.873
     5   6 C    3.992 --     4 C    1.117    14 H    0.984    13 H    0.968
                             6 C    0.872
     6   6 C    3.989 --     1 C    1.069    15 H    0.972    16 H    0.967
                             5 C    0.872
     7   1 H    0.999 --     1 C    0.947
     8   1 H    0.999 --     2 C    0.946
     9   1 H    0.999 --     3 C    0.971
    10   1 H    0.998 --     3 C    0.967
    11   1 H    0.999 --     4 C    0.984
    12   1 H    0.999 --     4 C    0.968
    13   1 H    0.999 --     5 C    0.968
    14   1 H    0.999 --     5 C    0.984
    15   1 H    0.999 --     6 C    0.972
    16   1 H    0.998 --     6 C    0.967
 ---------------------------------------------------------------------------

molecular dipole:
                 x           y           z       tot (Debye)
 q only:        0.010       0.056       0.008
   full:        0.009       0.046       0.007       0.121

           -------------------------------------------------
          | TOTAL ENERGY              -17.782348906997 Eh   |
          | GRADIENT NORM               0.000730462708 Eh/α |
          | HOMO-LUMO GAP               3.454149742959 eV   |
           -------------------------------------------------

 * finished run on 2025/05/23 at 11:18:31.614
