   * xtb version 6.6.1 (8d0f1dd) compiled by 'conda@1efc2f54142f' on 2023-08-01
          program call               : /home/avcopan/code/other/saddle-search-practice/.pixi/envs/default/bin/xtb path_opt0_xtb.xyz --chrg 0 --uhf 0 --opt --input xcontrol_path_opt0_xtb

   ID    Z sym.   atoms
    1    6 C      1-6
    2    1 H      7-16
constraining bond 3 4 to    1.7257000 Å, actual value:    1.5257813 Å
constraining bond 5 6 to    1.7258000 Å, actual value:    1.5258636 Å

          :  Hamiltonian                  GFN2-xTB          :
 * total energy  :   -17.3604822 Eh     change       -0.7304379E-10 Eh
 * total energy  :   -17.8437577 Eh     change       -0.4832755E+00 Eh
 * total energy  :   -17.8992473 Eh     change       -0.5548961E-01 Eh
 * total energy  :   -17.9004326 Eh     change       -0.1185361E-02 Eh
 * total energy  :   -17.9012730 Eh     change       -0.8404088E-03 Eh
 * total energy  :   -17.9023564 Eh     change       -0.1083416E-02 Eh
 * total energy  :   -17.8777081 Eh     change        0.2464839E-01 Eh
 * total energy  :   -17.9022701 Eh     change       -0.2456205E-01 Eh
 * total energy  :   -17.9027532 Eh     change       -0.4831078E-03 Eh
 * total energy  :   -17.9028707 Eh     change       -0.1175121E-03 Eh
 * total energy  :   -17.9030942 Eh     change       -0.6408817E-05 Eh
 * total energy  :   -17.9030998 Eh     change       -0.5589698E-05 Eh
 * total energy  :   -17.9031072 Eh     change       -0.7441108E-05 Eh
 * total energy  :   -17.9031130 Eh     change       -0.5816619E-05 Eh
 * total energy  :   -17.9031241 Eh     change       -0.1108500E-04 Eh
 * total energy  :   -17.9031291 Eh     change       -0.4950301E-05 Eh
 * total energy  :   -17.9031497 Eh     change       -0.2060694E-04 Eh
 * total energy  :   -17.9031561 Eh     change       -0.6381046E-05 Eh
 * total energy  :   -17.9031566 Eh     change       -0.5010886E-06 Eh
   *** GEOMETRY OPTIMIZATION CONVERGED AFTER 24 ITERATIONS ***

 final structure:
================
16
 xtb: 6.6.1 (8d0f1dd)
C           -0.88999507157559       -1.27653832536993       -0.18667235092808
C            0.41413199014528       -1.48940721461331       -0.26017162610717
C            1.47550997705697       -0.45896152715339       -0.11609034379808
C            0.80753809930398        1.11734967864247       -0.24821245458632
C           -0.41209149109013        1.18770479134910        0.62288319743294
C           -1.54742627351625        0.03609319958044        0.04539584166945
H           -1.57178062903877       -2.10918996507738       -0.31461703877366
H            0.77876115689364       -2.49624069458714       -0.42675719589243
H            2.23446460928247       -0.55739242368103       -0.88913058301409
H            1.95041065236702       -0.51994230263534        0.86239029679704
H            0.56606237230106        1.27132459687181       -1.29601481052883
H            1.58138541422881        1.81438549747143        0.06430861251706
H           -0.89768884572398        2.15975775765817        0.58007014082481
H           -0.18934069969241        0.92524296510611        1.65312689280784
H           -2.33754251607720       -0.03987373184867        0.78897273515283
H           -1.96230874486488        0.43557769828668       -0.87929131357331

          :  Hamiltonian                  GFN2-xTB          :
         :: total energy             -17.903156554637 Eh    ::
         :: gradient norm              0.000937443440 Eh/a0 ::
         :: HOMO-LUMO gap              5.183412226417 eV    ::
         :: SCC energy               -18.187426941781 Eh    ::
         :: -> dispersion             -0.009896824800 Eh    ::
         :: repulsion energy           0.283186581558 Eh    ::

    * Orbital Energies and Occupations

         #    Occupation            Energy/Eh            Energy/eV
      -------------------------------------------------------------
         1        2.0000           -0.6199459             -16.8696
       ...           ...                  ...                  ...
         5        2.0000           -0.5571301             -15.1603
         6        2.0000           -0.5232616             -14.2387
         7        2.0000           -0.5140730             -13.9886
         8        2.0000           -0.4929926             -13.4150
         9        2.0000           -0.4820539             -13.1174
        10        2.0000           -0.4689423             -12.7606
        11        2.0000           -0.4675908             -12.7238
        12        2.0000           -0.4645913             -12.6422
        13        2.0000           -0.4486011             -12.2071
        14        2.0000           -0.4348785             -11.8336
        15        2.0000           -0.4125427             -11.2259
        16        2.0000           -0.4011630             -10.9162
        17        2.0000           -0.3799351             -10.3386 (HOMO)
        18                         -0.1894482              -5.1551 (LUMO)
        19                         -0.0590497              -1.6068
        20                         -0.0373759              -1.0170
        21                          0.1181297               3.2145
        22                          0.1291205               3.5135
        23                          0.1531755               4.1681
        24                          0.1560459               4.2462
        25                          0.1700659               4.6277
        26                          0.1881729               5.1204
        27                          0.2241006               6.0981
        28                          0.2273032               6.1852
       ...                                ...                  ...
        34                          0.6419651              17.4688
      -------------------------------------------------------------
                  HL-Gap            0.1904869 Eh            5.1834 eV

     #   Z          covCN         q      C6AA      α(0)
     1   6 C        2.888    -0.038    28.946     8.821
     2   6 C        2.888    -0.038    28.946     8.821
     3   6 C        3.747    -0.062    21.769     6.655
     4   6 C        3.743    -0.059    21.712     6.647
     5   6 C        3.743    -0.059    21.712     6.647
     6   6 C        3.747    -0.062    21.769     6.655
     7   1 H        0.925     0.022     2.700     2.569
     8   1 H        0.925     0.022     2.701     2.570
     9   1 H        0.925     0.035     2.517     2.481
    10   1 H        0.925     0.039     2.456     2.451
    11   1 H        0.925     0.035     2.517     2.481
    12   1 H        0.925     0.028     2.615     2.529
    13   1 H        0.925     0.028     2.612     2.528
    14   1 H        0.925     0.035     2.517     2.481
    15   1 H        0.925     0.035     2.518     2.481
    16   1 H        0.925     0.040     2.455     2.450

Wiberg/Mayer (AO) data.
largest (>0.10) Wiberg bond orders for each atom

     #   Z sym  total        # sym  WBO       # sym  WBO       # sym  WBO
 ---------------------------------------------------------------------------
     1   6 C    3.991 --     2 C    1.922     6 C    1.039     7 H    0.963
     2   6 C    3.991 --     1 C    1.922     3 C    1.039     8 H    0.963
     3   6 C    3.996 --     2 C    1.039     9 H    0.973     4 C    0.970
                            10 H    0.965
     4   6 C    3.996 --     5 C    1.037    11 H    0.983    12 H    0.979
                             3 C    0.970
     5   6 C    3.996 --     4 C    1.037    14 H    0.983    13 H    0.979
                             6 C    0.970
     6   6 C    3.996 --     1 C    1.039    15 H    0.973     5 C    0.970
                            16 H    0.965
     7   1 H    1.000 --     1 C    0.963
     8   1 H    1.000 --     2 C    0.963
     9   1 H    0.999 --     3 C    0.973
    10   1 H    0.998 --     3 C    0.965
    11   1 H    0.999 --     4 C    0.983
    12   1 H    0.999 --     4 C    0.979
    13   1 H    0.999 --     5 C    0.979
    14   1 H    0.999 --     5 C    0.983
    15   1 H    0.999 --     6 C    0.973
    16   1 H    0.998 --     6 C    0.965
 ---------------------------------------------------------------------------

molecular dipole:
                 x           y           z       tot (Debye)
 q only:        0.019       0.109       0.018
   full:        0.020       0.115       0.019       0.301

           -------------------------------------------------
          | TOTAL ENERGY              -17.903156554637 Eh   |
          | GRADIENT NORM               0.000937443440 Eh/α |
          | HOMO-LUMO GAP               5.183412226417 eV   |
           -------------------------------------------------

 * finished run on 2025/05/23 at 11:18:28.115
