   * xtb version 6.6.1 (8d0f1dd) compiled by 'conda@1efc2f54142f' on 2023-08-01
          program call               : /home/avcopan/code/other/saddle-search-practice/.pixi/envs/default/bin/xtb path_opt7_xtb.xyz --chrg 0 --uhf 0 --opt --input xcontrol_path_opt7_xtb

   ID    Z sym.   atoms
    1    6 C      1-6
    2    1 H      7-16
constraining bond 3 4 to    2.0037000 Å, actual value:    1.9536709 Å
constraining bond 5 6 to    2.0038000 Å, actual value:    1.9537875 Å

          :  Hamiltonian                  GFN2-xTB          :
 * total energy  :   -17.7976721 Eh     change       -0.3215312E-09 Eh
 * total energy  :   -17.8113640 Eh     change       -0.1369185E-01 Eh
 * total energy  :   -17.8191395 Eh     change       -0.7775459E-02 Eh
 * total energy  :   -17.8191629 Eh     change       -0.2347505E-04 Eh
 * total energy  :   -17.8191603 Eh     change        0.2653212E-05 Eh
 * total energy  :   -17.8191795 Eh     change       -0.1919726E-04 Eh
 * total energy  :   -17.8191434 Eh     change        0.3605830E-04 Eh
 * total energy  :   -17.8191823 Eh     change       -0.3884892E-04 Eh
 * total energy  :   -17.8191858 Eh     change       -0.3515974E-05 Eh
 * total energy  :   -17.8191942 Eh     change       -0.8399298E-05 Eh
 * total energy  :   -17.8191977 Eh     change       -0.3479207E-05 Eh
   *** GEOMETRY OPTIMIZATION CONVERGED AFTER 11 ITERATIONS ***

 final structure:
================
16
 xtb: 6.6.1 (8d0f1dd)
C           -0.90134289026035       -1.33324305044380       -0.19829123099706
C            0.40511450991534       -1.54725441107683       -0.26619690255471
C            1.50464909960458       -0.57880142799684       -0.12091320991351
C            0.81335482461008        1.28669990457591       -0.23065816970116
C           -0.36028172410160        1.34477878876369        0.65727398859791
C           -1.61531323435201       -0.06334420197861        0.01508005620182
H           -1.56441165969588       -2.18477420120061       -0.32594287684905
H            0.74651352032533       -2.56468896347211       -0.43751479417542
H            2.23199724852380       -0.62194363208959       -0.92190738240906
H            1.97693511390447       -0.59970599648511        0.85462057259714
H            0.59866436292742        1.42579752271666       -1.28100998281399
H            1.67177378351266        1.85946972351069        0.10102785817478
H           -0.96591159574904        2.23887276588766        0.56349330351272
H           -0.16802572577953        1.07608211653654        1.68656444533333
H           -2.36038802201860       -0.10898217697015        0.79949673692484
H           -2.01325761136667        0.37094723972249       -0.89491241192857

          :  Hamiltonian                  GFN2-xTB          :
         :: total energy             -17.819197664931 Eh    ::
         :: gradient norm              0.000485706405 Eh/a0 ::
         :: HOMO-LUMO gap              4.484962803691 eV    ::
         :: SCC energy               -18.107830470852 Eh    ::
         :: -> dispersion             -0.010494329829 Eh    ::
         :: repulsion energy           0.286805247997 Eh    ::

    * Orbital Energies and Occupations

         #    Occupation            Energy/Eh            Energy/eV
      -------------------------------------------------------------
         1        2.0000           -0.6141379             -16.7115
       ...           ...                  ...                  ...
         5        2.0000           -0.5489196             -14.9369
         6        2.0000           -0.5188284             -14.1180
         7        2.0000           -0.5069167             -13.7939
         8        2.0000           -0.4913973             -13.3716
         9        2.0000           -0.4740220             -12.8988
        10        2.0000           -0.4737784             -12.8922
        11        2.0000           -0.4678806             -12.7317
        12        2.0000           -0.4611127             -12.5475
        13        2.0000           -0.4417814             -12.0215
        14        2.0000           -0.4389343             -11.9440
        15        2.0000           -0.3972377             -10.8094
        16        2.0000           -0.3859349             -10.5018
        17        2.0000           -0.3702093             -10.0739 (HOMO)
        18                         -0.2053900              -5.5889 (LUMO)
        19                         -0.1757222              -4.7816
        20                         -0.1584167              -4.3107
        21                          0.1154602               3.1418
        22                          0.1336298               3.6363
        23                          0.1557056               4.2370
        24                          0.1774551               4.8288
        25                          0.1967112               5.3528
        26                          0.2093502               5.6967
        27                          0.2197451               5.9796
        28                          0.2412998               6.5661
       ...                                ...                  ...
        34                          0.6475577              17.6209
      -------------------------------------------------------------
                  HL-Gap            0.1648194 Eh            4.4850 eV

     #   Z          covCN         q      C6AA      α(0)
     1   6 C        2.887    -0.035    28.881     8.811
     2   6 C        2.887    -0.035    28.881     8.811
     3   6 C        3.338    -0.070    27.089     8.238
     4   6 C        3.335    -0.064    26.989     8.230
     5   6 C        3.335    -0.064    26.993     8.231
     6   6 C        3.337    -0.070    27.092     8.239
     7   1 H        0.925     0.026     2.641     2.541
     8   1 H        0.925     0.026     2.641     2.541
     9   1 H        0.925     0.036     2.500     2.473
    10   1 H        0.925     0.040     2.448     2.447
    11   1 H        0.926     0.036     2.509     2.477
    12   1 H        0.925     0.032     2.564     2.504
    13   1 H        0.925     0.032     2.564     2.504
    14   1 H        0.926     0.036     2.509     2.477
    15   1 H        0.925     0.036     2.501     2.473
    16   1 H        0.925     0.040     2.447     2.446

Wiberg/Mayer (AO) data.
largest (>0.10) Wiberg bond orders for each atom

     #   Z sym  total        # sym  WBO       # sym  WBO       # sym  WBO
 ---------------------------------------------------------------------------
     1   6 C    3.992 --     2 C    1.908     6 C    1.059     7 H    0.952
     2   6 C    3.992 --     1 C    1.908     3 C    1.059     8 H    0.952
     3   6 C    3.991 --     2 C    1.059     9 H    0.973    10 H    0.967
                             4 C    0.915
     4   6 C    3.992 --     5 C    1.079    11 H    0.984    12 H    0.971
                             3 C    0.915
     5   6 C    3.992 --     4 C    1.079    14 H    0.984    13 H    0.971
                             6 C    0.915
     6   6 C    3.991 --     1 C    1.059    15 H    0.973    16 H    0.967
                             5 C    0.915
     7   1 H    0.999 --     1 C    0.952
     8   1 H    0.999 --     2 C    0.952
     9   1 H    0.999 --     3 C    0.973
    10   1 H    0.998 --     3 C    0.967
    11   1 H    0.999 --     4 C    0.984
    12   1 H    0.999 --     4 C    0.971
    13   1 H    0.999 --     5 C    0.971
    14   1 H    0.999 --     5 C    0.984
    15   1 H    0.999 --     6 C    0.973
    16   1 H    0.998 --     6 C    0.967
 ---------------------------------------------------------------------------

molecular dipole:
                 x           y           z       tot (Debye)
 q only:        0.012       0.072       0.011
   full:        0.013       0.073       0.012       0.190

           -------------------------------------------------
          | TOTAL ENERGY              -17.819197664931 Eh   |
          | GRADIENT NORM               0.000485706405 Eh/α |
          | HOMO-LUMO GAP               4.484962803691 eV   |
           -------------------------------------------------

 * finished run on 2025/05/23 at 11:18:30.829
