   * xtb version 6.6.1 (8d0f1dd) compiled by 'conda@1efc2f54142f' on 2023-08-01
          program call               : /home/avcopan/code/other/saddle-search-practice/.pixi/envs/default/bin/xtb path_opt6_xtb.xyz --chrg 0 --uhf 0 --opt --input xcontrol_path_opt6_xtb

   ID    Z sym.   atoms
    1    6 C      1-6
    2    1 H      7-16
constraining bond 3 4 to    1.9649000 Å, actual value:    1.9149181 Å
constraining bond 5 6 to    1.9650000 Å, actual value:    1.9150130 Å

          :  Hamiltonian                  GFN2-xTB          :
 * total energy  :   -17.8101459 Eh     change       -0.7027623E-09 Eh
 * total energy  :   -17.8237927 Eh     change       -0.1364686E-01 Eh
 * total energy  :   -17.8315732 Eh     change       -0.7780426E-02 Eh
 * total energy  :   -17.8315934 Eh     change       -0.2027773E-04 Eh
 * total energy  :   -17.8314901 Eh     change        0.1033532E-03 Eh
 * total energy  :   -17.8315899 Eh     change       -0.9983469E-04 Eh
 * total energy  :   -17.8315753 Eh     change        0.1465503E-04 Eh
 * total energy  :   -17.8316118 Eh     change       -0.3651205E-04 Eh
 * total energy  :   -17.8316141 Eh     change       -0.2280163E-05 Eh
   *** GEOMETRY OPTIMIZATION CONVERGED AFTER 9 ITERATIONS ***

 final structure:
================
16
 xtb: 6.6.1 (8d0f1dd)
C           -0.89955556642965       -1.32351827819764       -0.19736742294940
C            0.40666909910618       -1.53765241346880       -0.26423122187424
C            1.50199018345729       -0.56131016206887       -0.11742634479593
C            0.81071248762504        1.26210260492024       -0.23633400437114
C           -0.36603736831486        1.32034313723869        0.65474255376808
C           -1.60692654836740       -0.04760831790602        0.01741311879332
H           -1.56472695427374       -2.17290511478853       -0.32577718512838
H            0.75067865804908       -2.55397507643667       -0.43499617577835
H            2.23584434833926       -0.61487298354112       -0.91279092544975
H            1.97223850442746       -0.58661518170668        0.85980541999340
H            0.58694756255640        1.39766602351825       -1.28593512789479
H            1.65679798329663        1.85929981338259        0.08595548619811
H           -0.95257699354695        2.22932254275017        0.57663384709753
H           -0.16625588322468        1.04594962229384        1.68179959394111
H           -2.36068716029359       -0.09883361710845        0.79410611837118
H           -2.00502235240645        0.38252740111901       -0.89537772992073

          :  Hamiltonian                  GFN2-xTB          :
         :: total energy             -17.831614053467 Eh    ::
         :: gradient norm              0.000517896737 Eh/a0 ::
         :: HOMO-LUMO gap              4.731120764294 eV    ::
         :: SCC energy               -18.118898237385 Eh    ::
         :: -> dispersion             -0.010230620860 Eh    ::
         :: repulsion energy           0.285457985435 Eh    ::

    * Orbital Energies and Occupations

         #    Occupation            Energy/Eh            Energy/eV
      -------------------------------------------------------------
         1        2.0000           -0.6144508             -16.7201
       ...           ...                  ...                  ...
         5        2.0000           -0.5497881             -14.9605
         6        2.0000           -0.5192596             -14.1298
         7        2.0000           -0.5076407             -13.8136
         8        2.0000           -0.4914088             -13.3719
         9        2.0000           -0.4747285             -12.9180
        10        2.0000           -0.4728782             -12.8677
        11        2.0000           -0.4680548             -12.7364
        12        2.0000           -0.4615687             -12.5599
        13        2.0000           -0.4411823             -12.0052
        14        2.0000           -0.4397227             -11.9655
        15        2.0000           -0.3993537             -10.8670
        16        2.0000           -0.3872779             -10.5384
        17        2.0000           -0.3733554             -10.1595 (HOMO)
        18                         -0.1994899              -5.4284 (LUMO)
        19                         -0.1679459              -4.5700
        20                         -0.1473168              -4.0087
        21                          0.1156277               3.1464
        22                          0.1335793               3.6349
        23                          0.1557514               4.2382
        24                          0.1750897               4.7644
        25                          0.1947908               5.3005
        26                          0.2061640               5.6100
        27                          0.2201176               5.9897
        28                          0.2386199               6.4932
       ...                                ...                  ...
        34                          0.6462445              17.5852
      -------------------------------------------------------------
                  HL-Gap            0.1738655 Eh            4.7311 eV

     #   Z          covCN         q      C6AA      α(0)
     1   6 C        2.887    -0.036    28.892     8.812
     2   6 C        2.887    -0.036    28.892     8.812
     3   6 C        3.417    -0.069    25.189     7.697
     4   6 C        3.414    -0.063    25.117     7.695
     5   6 C        3.414    -0.063    25.122     7.696
     6   6 C        3.417    -0.069    25.194     7.699
     7   1 H        0.925     0.026     2.651     2.546
     8   1 H        0.925     0.026     2.651     2.546
     9   1 H        0.925     0.036     2.504     2.474
    10   1 H        0.925     0.040     2.449     2.447
    11   1 H        0.925     0.036     2.508     2.477
    12   1 H        0.925     0.031     2.575     2.509
    13   1 H        0.925     0.031     2.575     2.509
    14   1 H        0.925     0.036     2.508     2.477
    15   1 H        0.925     0.036     2.504     2.475
    16   1 H        0.925     0.040     2.448     2.447

Wiberg/Mayer (AO) data.
largest (>0.10) Wiberg bond orders for each atom

     #   Z sym  total        # sym  WBO       # sym  WBO       # sym  WBO
 ---------------------------------------------------------------------------
     1   6 C    3.992 --     2 C    1.910     6 C    1.056     7 H    0.954
     2   6 C    3.992 --     1 C    1.910     3 C    1.056     8 H    0.954
     3   6 C    3.991 --     2 C    1.056     9 H    0.973    10 H    0.966
                             4 C    0.925
     4   6 C    3.993 --     5 C    1.071    11 H    0.984    12 H    0.973
                             3 C    0.925
     5   6 C    3.993 --     4 C    1.071    14 H    0.984    13 H    0.973
                             6 C    0.925
     6   6 C    3.991 --     1 C    1.056    15 H    0.973    16 H    0.966
                             5 C    0.925
     7   1 H    0.999 --     1 C    0.954
     8   1 H    0.999 --     2 C    0.954
     9   1 H    0.999 --     3 C    0.973
    10   1 H    0.998 --     3 C    0.966
    11   1 H    0.999 --     4 C    0.984
    12   1 H    0.999 --     4 C    0.973
    13   1 H    0.999 --     5 C    0.973
    14   1 H    0.999 --     5 C    0.984
    15   1 H    0.999 --     6 C    0.973
    16   1 H    0.998 --     6 C    0.966
 ---------------------------------------------------------------------------

molecular dipole:
                 x           y           z       tot (Debye)
 q only:        0.013       0.078       0.012
   full:        0.014       0.080       0.013       0.209

           -------------------------------------------------
          | TOTAL ENERGY              -17.831614053467 Eh   |
          | GRADIENT NORM               0.000517896737 Eh/α |
          | HOMO-LUMO GAP               4.731120764294 eV   |
           -------------------------------------------------

 * finished run on 2025/05/23 at 11:18:30.444
