   * xtb version 6.6.1 (8d0f1dd) compiled by 'conda@1efc2f54142f' on 2023-08-01
          program call               : /home/avcopan/code/other/saddle-search-practice/.pixi/envs/default/bin/xtb path_opt-1_xtb.xyz --chrg 0 --uhf 0 --opt --input xcontrol_path_opt-1_xtb

   ID    Z sym.   atoms
    1    6 C      1-6
    2    1 H      7-16
constraining bond 3 4 to    1.5257000 Å, actual value:    1.5257410 Å
constraining bond 5 6 to    1.5258000 Å, actual value:    1.5258428 Å

          :  Hamiltonian                  GFN2-xTB          :
 * total energy  :   -17.9298773 Eh     change       -0.1064393E-10 Eh
 * total energy  :   -17.9312614 Eh     change       -0.1384116E-02 Eh
 * total energy  :   -17.9314045 Eh     change       -0.1431217E-03 Eh
 * total energy  :   -17.9314290 Eh     change       -0.2446219E-04 Eh
 * total energy  :   -17.9314372 Eh     change       -0.8225004E-05 Eh
 * total energy  :   -17.9314383 Eh     change       -0.1082353E-05 Eh
   *** GEOMETRY OPTIMIZATION CONVERGED AFTER 6 ITERATIONS ***

 final structure:
================
16
 xtb: 6.6.1 (8d0f1dd)
C           -0.88428601703013       -1.24681358681101       -0.17791728306277
C            0.41839911735045       -1.45802741824213       -0.25925231692669
C            1.44279704385045       -0.37409268227802       -0.11576799064713
C            0.81189960795771        1.00802516009317       -0.25618518852102
C           -0.45083887652467        1.08795431078874        0.59504263114961
C           -1.48989938363931        0.10072778752824        0.07157735928675
H           -1.58190560414048       -2.06420204025517       -0.30281564305752
H            0.80355232306248       -2.45487769227098       -0.42760952632332
H            2.22690364033422       -0.51057744629718       -0.86544068308984
H            1.91982678549934       -0.46715268305666        0.86632084641237
H            0.54967388864493        1.18250193697190       -1.30203271215229
H            1.52520981240875        1.77783455188091        0.04564302010364
H           -0.85696870603830        2.10155297828662        0.58149040799597
H           -0.20161481434307        0.83814919090462        1.62871415180092
H           -2.31402767055372        0.00499094050721        0.78368541387376
H           -1.91862114683865        0.47389669224976       -0.86525248684245

          :  Hamiltonian                  GFN2-xTB          :
         :: total energy             -17.931438272364 Eh    ::
         :: gradient norm              0.000474162488 Eh/a0 ::
         :: HOMO-LUMO gap              5.234382078451 eV    ::
         :: SCC energy               -18.224804389676 Eh    ::
         :: -> dispersion             -0.010085144459 Eh    ::
         :: repulsion energy           0.293345912817 Eh    ::

    * Orbital Energies and Occupations

         #    Occupation            Energy/Eh            Energy/eV
      -------------------------------------------------------------
         1        2.0000           -0.6302455             -17.1499
       ...           ...                  ...                  ...
         5        2.0000           -0.5639194             -15.3450
         6        2.0000           -0.5292214             -14.4008
         7        2.0000           -0.5214553             -14.1895
         8        2.0000           -0.4939290             -13.4405
         9        2.0000           -0.4910419             -13.3619
        10        2.0000           -0.4720573             -12.8453
        11        2.0000           -0.4659527             -12.6792
        12        2.0000           -0.4637872             -12.6203
        13        2.0000           -0.4593212             -12.4988
        14        2.0000           -0.4267738             -11.6131
        15        2.0000           -0.4166065             -11.3364
        16        2.0000           -0.4073636             -11.0849
        17        2.0000           -0.3807086             -10.3596 (HOMO)
        18                         -0.1883486              -5.1252 (LUMO)
        19                          0.0981227               2.6701
        20                          0.1028707               2.7993
        21                          0.1096754               2.9844
        22                          0.1232863               3.3548
        23                          0.1259225               3.4265
        24                          0.1467475               3.9932
        25                          0.1567684               4.2659
        26                          0.1926815               5.2431
        27                          0.1968628               5.3569
        28                          0.2366187               6.4387
       ...                                ...                  ...
        34                          0.6419172              17.4675
      -------------------------------------------------------------
                  HL-Gap            0.1923600 Eh            5.2344 eV

     #   Z          covCN         q      C6AA      α(0)
     1   6 C        2.892    -0.041    29.020     8.832
     2   6 C        2.892    -0.041    29.020     8.832
     3   6 C        3.809    -0.053    21.517     6.603
     4   6 C        3.807    -0.054    21.535     6.606
     5   6 C        3.807    -0.054    21.535     6.606
     6   6 C        3.809    -0.053    21.517     6.603
     7   1 H        0.925     0.021     2.723     2.581
     8   1 H        0.925     0.021     2.723     2.581
     9   1 H        0.924     0.033     2.548     2.496
    10   1 H        0.924     0.037     2.490     2.468
    11   1 H        0.924     0.032     2.552     2.498
    12   1 H        0.924     0.025     2.658     2.549
    13   1 H        0.924     0.025     2.658     2.549
    14   1 H        0.924     0.032     2.552     2.498
    15   1 H        0.924     0.033     2.548     2.496
    16   1 H        0.924     0.037     2.490     2.468

Wiberg/Mayer (AO) data.
largest (>0.10) Wiberg bond orders for each atom

     #   Z sym  total        # sym  WBO       # sym  WBO       # sym  WBO
 ---------------------------------------------------------------------------
     1   6 C    3.991 --     2 C    1.929     6 C    1.024     7 H    0.968
     2   6 C    3.991 --     1 C    1.929     3 C    1.024     8 H    0.968
     3   6 C    3.999 --     2 C    1.024     4 C    1.007     9 H    0.968
                            10 H    0.959
     4   6 C    3.999 --     5 C    1.009     3 C    1.007    12 H    0.979
                            11 H    0.979
     5   6 C    3.999 --     4 C    1.009     6 C    1.007    13 H    0.979
                            14 H    0.979
     6   6 C    3.999 --     1 C    1.024     5 C    1.007    15 H    0.968
                            16 H    0.959
     7   1 H    1.000 --     1 C    0.968
     8   1 H    1.000 --     2 C    0.968
     9   1 H    0.999 --     3 C    0.968
    10   1 H    0.999 --     3 C    0.959
    11   1 H    0.999 --     4 C    0.979
    12   1 H    0.999 --     4 C    0.979
    13   1 H    0.999 --     5 C    0.979
    14   1 H    0.999 --     5 C    0.979
    15   1 H    0.999 --     6 C    0.968
    16   1 H    0.999 --     6 C    0.959
 ---------------------------------------------------------------------------

molecular dipole:
                 x           y           z       tot (Debye)
 q only:        0.022       0.125       0.020
   full:        0.022       0.127       0.020       0.331

           -------------------------------------------------
          | TOTAL ENERGY              -17.931438272364 Eh   |
          | GRADIENT NORM               0.000474162488 Eh/α |
          | HOMO-LUMO GAP               5.234382078451 eV   |
           -------------------------------------------------

 * finished run on 2025/05/23 at 11:18:27.621
