   * xtb version 6.6.1 (8d0f1dd) compiled by 'conda@1efc2f54142f' on 2023-08-01
          program call               : /home/avcopan/code/other/saddle-search-practice/.pixi/envs/default/bin/xtb path_opt8_xtb.xyz --chrg 0 --uhf 0 --opt --input xcontrol_path_opt8_xtb

   ID    Z sym.   atoms
    1    6 C      1-6
    2    1 H      7-16
constraining bond 3 4 to    2.0425000 Å, actual value:    1.9924938 Å
constraining bond 5 6 to    2.0426000 Å, actual value:    1.9925639 Å

          :  Hamiltonian                  GFN2-xTB          :
 * total energy  :   -17.7852554 Eh     change       -0.2511232E-08 Eh
 * total energy  :   -17.7989798 Eh     change       -0.1372439E-01 Eh
 * total energy  :   -17.8067226 Eh     change       -0.7742775E-02 Eh
 * total energy  :   -17.8067488 Eh     change       -0.2618113E-04 Eh
 * total energy  :   -17.8067481 Eh     change        0.6801094E-06 Eh
 * total energy  :   -17.8067676 Eh     change       -0.1951499E-04 Eh
 * total energy  :   -17.8067665 Eh     change        0.1098059E-05 Eh
 * total energy  :   -17.8067670 Eh     change       -0.5156943E-06 Eh
 * total energy  :   -17.8067786 Eh     change       -0.1159875E-04 Eh
 * total energy  :   -17.8067836 Eh     change       -0.4968789E-05 Eh
   *** GEOMETRY OPTIMIZATION CONVERGED AFTER 10 ITERATIONS ***

 final structure:
================
16
 xtb: 6.6.1 (8d0f1dd)
C           -0.90325988985325       -1.34311903546384       -0.19985434239256
C            0.40362125274850       -1.55723725813743       -0.26753362868759
C            1.50695403556411       -0.59560719156750       -0.12388085349290
C            0.81573772757103        1.31179560870693       -0.22525381037386
C           -0.35425046046171        1.36955010286632        0.66036937700476
C           -1.62305250325732       -0.07841417734580        0.01216961352611
H           -1.56386802745647       -2.19719434202916       -0.32716286936828
H            0.74189105862780       -2.57624061859919       -0.43865418727875
H            2.22805719127172       -0.62937913179249       -0.93028884511833
H            1.98148617320005       -0.61287854354891        0.85006617336546
H            0.60825022126395        1.45499277736889       -1.27606167317699
H            1.68734308768351        1.85930068318619        0.11356861579042
H           -0.98007898565757        2.24763181404907        0.55292028749966
H           -0.16752484259023        1.10631602909767        1.69162225684483
H           -2.36024671558188       -0.11912775037888        0.80361510670258
H           -2.02099932307224        0.35954103358813       -0.89543122084455

          :  Hamiltonian                  GFN2-xTB          :
         :: total energy             -17.806783604921 Eh    ::
         :: gradient norm              0.000464505212 Eh/a0 ::
         :: HOMO-LUMO gap              4.173071962743 eV    ::
         :: SCC energy               -18.096393394501 Eh    ::
         :: -> dispersion             -0.010677394588 Eh    ::
         :: repulsion energy           0.287791087529 Eh    ::

    * Orbital Energies and Occupations

         #    Occupation            Energy/Eh            Energy/eV
      -------------------------------------------------------------
         1        2.0000           -0.6138803             -16.7045
       ...           ...                  ...                  ...
         5        2.0000           -0.5481088             -14.9148
         6        2.0000           -0.5184461             -14.1076
         7        2.0000           -0.5062752             -13.7764
         8        2.0000           -0.4913511             -13.3703
         9        2.0000           -0.4746058             -12.9147
        10        2.0000           -0.4733596             -12.8808
        11        2.0000           -0.4677093             -12.7270
        12        2.0000           -0.4605703             -12.5328
        13        2.0000           -0.4422438             -12.0341
        14        2.0000           -0.4382918             -11.9265
        15        2.0000           -0.3953012             -10.7567
        16        2.0000           -0.3850292             -10.4772
        17        2.0000           -0.3665455              -9.9742 (HOMO)
        18                         -0.2131879              -5.8011 (LUMO)
        19                         -0.1804641              -4.9107
        20                         -0.1682650              -4.5787
        21                          0.1152799               3.1369
        22                          0.1333046               3.6274
        23                          0.1554257               4.2293
        24                          0.1792292               4.8771
        25                          0.1982375               5.3943
        26                          0.2107522               5.7349
        27                          0.2189795               5.9587
        28                          0.2434836               6.6255
       ...                                ...                  ...
        34                          0.6480991              17.6357
      -------------------------------------------------------------
                  HL-Gap            0.1533576 Eh            4.1731 eV

     #   Z          covCN         q      C6AA      α(0)
     1   6 C        2.887    -0.035    28.872     8.809
     2   6 C        2.887    -0.035    28.872     8.809
     3   6 C        3.257    -0.072    28.578     8.642
     4   6 C        3.255    -0.064    28.433     8.624
     5   6 C        3.255    -0.064    28.436     8.625
     6   6 C        3.257    -0.072    28.580     8.643
     7   1 H        0.925     0.027     2.631     2.536
     8   1 H        0.925     0.027     2.630     2.536
     9   1 H        0.925     0.036     2.497     2.471
    10   1 H        0.925     0.040     2.448     2.447
    11   1 H        0.926     0.035     2.511     2.478
    12   1 H        0.925     0.032     2.553     2.499
    13   1 H        0.925     0.032     2.553     2.499
    14   1 H        0.926     0.035     2.510     2.478
    15   1 H        0.925     0.036     2.498     2.472
    16   1 H        0.925     0.040     2.447     2.446

Wiberg/Mayer (AO) data.
largest (>0.10) Wiberg bond orders for each atom

     #   Z sym  total        # sym  WBO       # sym  WBO       # sym  WBO
 ---------------------------------------------------------------------------
     1   6 C    3.992 --     2 C    1.905     6 C    1.062     7 H    0.951
     2   6 C    3.992 --     1 C    1.905     3 C    1.062     8 H    0.950
     3   6 C    3.990 --     2 C    1.062     9 H    0.973    10 H    0.967
                             4 C    0.904
     4   6 C    3.992 --     5 C    1.088    11 H    0.984    12 H    0.970
                             3 C    0.904
     5   6 C    3.992 --     4 C    1.088    14 H    0.984    13 H    0.970
                             6 C    0.904
     6   6 C    3.990 --     1 C    1.062    15 H    0.973    16 H    0.967
                             5 C    0.904
     7   1 H    0.999 --     1 C    0.951
     8   1 H    0.999 --     2 C    0.950
     9   1 H    0.999 --     3 C    0.973
    10   1 H    0.998 --     3 C    0.967
    11   1 H    0.999 --     4 C    0.984
    12   1 H    0.999 --     4 C    0.970
    13   1 H    0.999 --     5 C    0.970
    14   1 H    0.999 --     5 C    0.984
    15   1 H    0.999 --     6 C    0.973
    16   1 H    0.998 --     6 C    0.967
 ---------------------------------------------------------------------------

molecular dipole:
                 x           y           z       tot (Debye)
 q only:        0.012       0.067       0.010
   full:        0.012       0.065       0.010       0.170

           -------------------------------------------------
          | TOTAL ENERGY              -17.806783604921 Eh   |
          | GRADIENT NORM               0.000464505212 Eh/α |
          | HOMO-LUMO GAP               4.173071962743 eV   |
           -------------------------------------------------

 * finished run on 2025/05/23 at 11:18:31.084
