                         Program Version 5.0.4 -  RELEASE  -
|  1> ! LooseOpt PBE0 RIJCOSX D3BJ def2-SVP def2/J
|  2> %geom MaxIter 10 end
|  3> %output
|  4> xyzfile=True
|  5> end
|  6> %scf
|  7> maxiter 250
|  8> end
|  9> %output
| 10> Print[P_Hirshfeld] = 1
| 11> end
| 12> % maxcore
| 13> 4000
| 14> *xyz 0 1
| 15> C   -0.88426379  -1.24663757  -0.17753754
| 16> C    0.41845106  -1.45801772  -0.25874564
| 17> C    1.44295967  -0.37436757  -0.11589782
| 18> C    0.81139756   1.00825118  -0.25606656
| 19> C   -0.45058555   1.08770182   0.59578024
| 20> C   -1.48977933   0.10078853   0.07065260
| 21> H   -1.58143581  -2.06433613  -0.30121408
| 22> H    0.80326753  -2.45499236  -0.42703570
| 23> H    2.22616270  -0.51034960  -0.86638929
| 24> H    1.92076581  -0.46707754   0.86569829
| 25> H    0.54882760   1.18246540  -1.30186869
| 26> H    1.52483283   1.77787560   0.04538904
| 27> H   -0.85711970   2.10122156   0.58299224
| 28> H   -0.20163859   0.83711123   1.62938656
| 29> H   -2.31465904   0.00600205   0.78189389
| 30> H   -1.91708296   0.47426113  -0.86683752
| 31> *
| 32>
| 33>                          ****END OF INPUT****
 Total Charge           Charge          ....    0
 Multiplicity           Mult            ....    1
 Number of Electrons    NEL             ....   46
Dispersion correction           -0.011975797
FINAL SINGLE POINT ENERGY      -234.205228163395
Dispersion correction            ... done
Dispersion correction           -0.011907369
FINAL SINGLE POINT ENERGY      -234.206687677136
Dispersion correction            ... done
Dispersion correction           -0.011889947
FINAL SINGLE POINT ENERGY      -234.206867841192
Dispersion correction            ... done
Dispersion correction           -0.011881210
FINAL SINGLE POINT ENERGY      -234.206940071033
Dispersion correction            ... done
                    ***********************HURRAY********************

CARTESIAN COORDINATES (ANGSTROEM)
---------------------------------
  C     -0.893803   -1.253151   -0.183205
  C      0.425047   -1.468441   -0.256601
  C      1.446892   -0.377494   -0.122798
  C      0.823634    1.010012   -0.237641
  C     -0.460409    1.099387    0.578858
  C     -1.495258    0.096986    0.077479
  H     -1.582368   -2.095005   -0.315133
  H      0.793442   -2.486281   -0.425429
  H      2.234876   -0.510688   -0.883810
  H      1.965930   -0.483486    0.849443
  H      0.589046    1.213808   -1.297646
  H      1.544286    1.781610    0.076257
  H     -0.872245    2.120651    0.554393
  H     -0.228240    0.880767    1.636487
  H     -2.322740    0.001661    0.801340
  H     -1.967991    0.469564   -0.851794

 Multiplicity           Mult            ....    1
 Number of Electrons    NEL             ....   46
 Basis Dimension        Dim             ....  134

ORBITAL ENERGIES
----------------

  NO   OCC          E(Eh)            E(eV)
   0   2.0000     -10.229388      -278.3558
   1   2.0000     -10.229359      -278.3550
   2   2.0000     -10.226160      -278.2680
   3   2.0000     -10.226022      -278.2642
   4   2.0000     -10.225042      -278.2375
   5   2.0000     -10.224267      -278.2164
   6   2.0000      -0.849914       -23.1273
   7   2.0000      -0.754620       -20.5343
   8   2.0000      -0.751831       -20.4584
   9   2.0000      -0.628050       -17.0901
  10   2.0000      -0.607541       -16.5320
  11   2.0000      -0.518151       -14.0996
  12   2.0000      -0.506011       -13.7693
  13   2.0000      -0.454078       -12.3561
  14   2.0000      -0.436266       -11.8714
  15   2.0000      -0.419202       -11.4071
  16   2.0000      -0.400986       -10.9114
  17   2.0000      -0.390950       -10.6383
  18   2.0000      -0.387696       -10.5497
  19   2.0000      -0.333469        -9.0741
  20   2.0000      -0.326052        -8.8723
  21   2.0000      -0.314058        -8.5460
  22   2.0000      -0.249680        -6.7941
  23   0.0000       0.029166         0.7936
  24   0.0000       0.066629         1.8131
  25   0.0000       0.100210         2.7269
  26   0.0000       0.106174         2.8891
  27   0.0000       0.110941         3.0189

MULLIKEN ATOMIC CHARGES
-----------------------
   0 C :   -0.108351
   1 C :   -0.108133
   2 C :    0.001440
   3 C :   -0.072559
   4 C :   -0.072327
   5 C :    0.001639
   6 H :    0.023074
   7 H :    0.022846
   8 H :    0.040116
   9 H :    0.045090
  10 H :    0.038238
  11 H :    0.032783
  12 H :    0.032655
  13 H :    0.038280
  14 H :    0.040120
  15 H :    0.045091
Sum of atomic charges:    0.0000000

LOEWDIN ATOMIC CHARGES
----------------------
   0 C :   -0.052988
   1 C :   -0.052938
   2 C :   -0.051661
   3 C :   -0.046216
   4 C :   -0.046188
   5 C :   -0.051650
   6 H :    0.027450
   7 H :    0.027409
   8 H :    0.034071
   9 H :    0.035015
  10 H :    0.027343
  11 H :    0.026972
  12 H :    0.026957
  13 H :    0.027347
  14 H :    0.034066
  15 H :    0.035011

  Mayer bond orders larger than 0.100000
B(  0-C ,  1-C ) :   1.9478 B(  0-C ,  5-C ) :   1.0271 B(  0-C ,  6-H ) :   0.9639
B(  1-C ,  2-C ) :   1.0269 B(  1-C ,  7-H ) :   0.9640 B(  2-C ,  3-C ) :   1.0759
B(  2-C ,  8-H ) :   0.9383 B(  2-C ,  9-H ) :   0.9264 B(  3-C ,  4-C ) :   1.0674
B(  3-C , 10-H ) :   0.9507 B(  3-C , 11-H ) :   0.9449 B(  4-C ,  5-C ) :   1.0756
B(  4-C , 12-H ) :   0.9449 B(  4-C , 13-H ) :   0.9507 B(  5-C , 14-H ) :   0.9382
B(  5-C , 15-H ) :   0.9264

Dispersion correction           -0.011880722
FINAL SINGLE POINT ENERGY      -234.206947777768

DIPOLE MOMENT
-------------
                                X             Y             Z
Electronic contribution:     -0.31898      -1.85076      -0.29859
Nuclear contribution   :      0.33786       1.95923       0.31601
                        -----------------------------------------
Total Dipole Moment    :      0.01888       0.10847       0.01742
                        -----------------------------------------
Magnitude (a.u.)       :      0.11147
Magnitude (Debye)      :      0.28334

Rotational constants in cm-1:     0.158677     0.152128     0.085600
Rotational constants in MHz :  4757.026004  4560.668363  2566.227192

                             ****ORCA TERMINATED NORMALLY****
TOTAL RUN TIME: 0 days 0 hours 3 minutes 19 seconds 371 msec
