   * xtb version 6.6.1 (8d0f1dd) compiled by 'conda@1efc2f54142f' on 2023-08-01
          program call               : /home/avcopan/code/other/saddle-search-practice/.pixi/envs/default/bin/xtb p0_C6H10_conf1_opt_xtb.xyz --chrg 0 --uhf 0 --opt

   ID    Z sym.   atoms
    1    6 C      1-6
    2    1 H      7-16

          :  Hamiltonian                  GFN2-xTB          :
 * total energy  :   -17.9193534 Eh     change       -0.6831868E-11 Eh
 * total energy  :   -17.9277477 Eh     change       -0.8394340E-02 Eh
 * total energy  :   -17.9299408 Eh     change       -0.2193060E-02 Eh
 * total energy  :   -17.9308585 Eh     change       -0.9176973E-03 Eh
 * total energy  :   -17.9311955 Eh     change       -0.3369888E-03 Eh
 * total energy  :   -17.9313192 Eh     change       -0.1237503E-03 Eh
 * total energy  :   -17.9313631 Eh     change       -0.4383794E-04 Eh
 * total energy  :   -17.9313898 Eh     change       -0.2669343E-04 Eh
 * total energy  :   -17.9314199 Eh     change       -0.3012716E-04 Eh
 * total energy  :   -17.9314329 Eh     change       -0.1298367E-04 Eh
 * total energy  :   -17.9314379 Eh     change       -0.5039549E-05 Eh
 * total energy  :   -17.9314387 Eh     change       -0.7530672E-06 Eh
   *** GEOMETRY OPTIMIZATION CONVERGED AFTER 12 ITERATIONS ***

 final structure:
================
16
 xtb: 6.6.1 (8d0f1dd)
C           -0.88426378947408       -1.24663757206348       -0.17753754160915
C            0.41845106144479       -1.45801771757455       -0.25874564250445
C            1.44295966978926       -0.37436756606104       -0.11589782130870
C            0.81139756330709        1.00825117667759       -0.25606656055724
C           -0.45058554679487        1.08770181734867        0.59578024212510
C           -1.48977932790484        0.10078853103108        0.07065260340991
H           -1.58143581303640       -2.06433612811971       -0.30121408489558
H            0.80326752653398       -2.45499235978636       -0.42703570303604
H            2.22616270299066       -0.51034960260375       -0.86638928843012
H            1.92076581352433       -0.46707754342872        0.86569828580210
H            0.54882760349947        1.18246540003490       -1.30186869410846
H            1.52483282730347        1.77787559508215        0.04538903732909
H           -0.85711969676996        2.10122156473034        0.58299224303169
H           -0.20163859424801        0.83711123444387        1.62938656158850
H           -2.31465904449251        0.00600204512004        0.78189388517967
H           -1.91708295567244        0.47426112516886       -0.86683752201626

          :  Hamiltonian                  GFN2-xTB          :
         :: total energy             -17.931438660579 Eh    ::
         :: gradient norm              0.000311512370 Eh/a0 ::
         :: HOMO-LUMO gap              5.233844644480 eV    ::
         :: SCC energy               -18.224834019721 Eh    ::
         :: -> dispersion             -0.010085422109 Eh    ::
         :: repulsion energy           0.293375236615 Eh    ::

    * Orbital Energies and Occupations

         #    Occupation            Energy/Eh            Energy/eV
      -------------------------------------------------------------
         1        2.0000           -0.6302372             -17.1496
       ...           ...                  ...                  ...
         5        2.0000           -0.5639066             -15.3447
         6        2.0000           -0.5292322             -14.4011
         7        2.0000           -0.5214548             -14.1895
         8        2.0000           -0.4939077             -13.4399
         9        2.0000           -0.4910285             -13.3616
        10        2.0000           -0.4720236             -12.8444
        11        2.0000           -0.4659474             -12.6791
        12        2.0000           -0.4638040             -12.6207
        13        2.0000           -0.4593082             -12.4984
        14        2.0000           -0.4268600             -11.6155
        15        2.0000           -0.4165837             -11.3358
        16        2.0000           -0.4073277             -11.0840
        17        2.0000           -0.3807036             -10.3595 (HOMO)
        18                         -0.1883633              -5.1256 (LUMO)
        19                          0.0984393               2.6787
        20                          0.1024762               2.7885
        21                          0.1097790               2.9872
        22                          0.1233717               3.3571
        23                          0.1261096               3.4316
        24                          0.1465825               3.9887
        25                          0.1565453               4.2598
        26                          0.1925822               5.2404
        27                          0.1970745               5.3627
        28                          0.2365814               6.4377
       ...                                ...                  ...
        34                          0.6417721              17.4635
      -------------------------------------------------------------
                  HL-Gap            0.1923403 Eh            5.2338 eV

     #   Z          covCN         q      C6AA      α(0)
     1   6 C        2.892    -0.041    29.020     8.832
     2   6 C        2.892    -0.041    29.020     8.832
     3   6 C        3.809    -0.053    21.519     6.603
     4   6 C        3.807    -0.054    21.535     6.606
     5   6 C        3.807    -0.054    21.535     6.606
     6   6 C        3.809    -0.053    21.518     6.603
     7   1 H        0.925     0.021     2.723     2.580
     8   1 H        0.925     0.021     2.723     2.581
     9   1 H        0.924     0.033     2.548     2.496
    10   1 H        0.924     0.037     2.489     2.467
    11   1 H        0.924     0.032     2.552     2.498
    12   1 H        0.924     0.025     2.657     2.549
    13   1 H        0.924     0.025     2.658     2.550
    14   1 H        0.924     0.032     2.552     2.498
    15   1 H        0.924     0.033     2.548     2.496
    16   1 H        0.924     0.037     2.490     2.468

Wiberg/Mayer (AO) data.
largest (>0.10) Wiberg bond orders for each atom

     #   Z sym  total        # sym  WBO       # sym  WBO       # sym  WBO
 ---------------------------------------------------------------------------
     1   6 C    3.991 --     2 C    1.929     6 C    1.024     7 H    0.968
     2   6 C    3.991 --     1 C    1.929     3 C    1.024     8 H    0.968
     3   6 C    3.999 --     2 C    1.024     4 C    1.007     9 H    0.968
                            10 H    0.959
     4   6 C    3.999 --     5 C    1.009     3 C    1.007    12 H    0.979
                            11 H    0.979
     5   6 C    3.999 --     4 C    1.009     6 C    1.007    13 H    0.979
                            14 H    0.979
     6   6 C    3.999 --     1 C    1.024     5 C    1.007    15 H    0.968
                            16 H    0.959
     7   1 H    1.000 --     1 C    0.968
     8   1 H    1.000 --     2 C    0.968
     9   1 H    0.999 --     3 C    0.968
    10   1 H    0.999 --     3 C    0.959
    11   1 H    0.999 --     4 C    0.979
    12   1 H    0.999 --     4 C    0.979
    13   1 H    0.999 --     5 C    0.979
    14   1 H    0.999 --     5 C    0.979
    15   1 H    0.999 --     6 C    0.968
    16   1 H    0.999 --     6 C    0.959
 ---------------------------------------------------------------------------

molecular dipole:
                 x           y           z       tot (Debye)
 q only:        0.022       0.125       0.020
   full:        0.022       0.127       0.020       0.331

           -------------------------------------------------
          | TOTAL ENERGY              -17.931438660579 Eh   |
          | GRADIENT NORM               0.000311512370 Eh/α |
          | HOMO-LUMO GAP               5.233844644480 eV   |
           -------------------------------------------------

 * finished run on 2025/05/23 at 11:12:38.185
