                         Program Version 5.0.4 -  RELEASE  -
|  1> ! LooseOpt PBE0 RIJCOSX D3BJ def2-SVP def2/J
|  2> %geom MaxIter 10 end
|  3> %output
|  4> xyzfile=True
|  5> end
|  6> %scf
|  7> maxiter 250
|  8> end
|  9> %output
| 10> Print[P_Hirshfeld] = 1
| 11> end
| 12> % maxcore
| 13> 4000
| 14> *xyz 0 1
| 15> C    1.82600899  -0.09302643  -0.10726224
| 16> C    0.60403586   0.38747691   0.09330057
| 17> C   -0.60368536  -0.38783020  -0.09345577
| 18> C   -1.82581866   0.09292642   0.10714541
| 19> H    2.70787742   0.50745518   0.03852569
| 20> H    1.98711570  -1.10981925  -0.42778335
| 21> H    0.46687444   1.41243495   0.41418865
| 22> H   -0.46665050  -1.41287392  -0.41436365
| 23> H   -2.70870648  -0.50619534  -0.03805559
| 24> H   -1.98705141   1.10945167   0.42766029
| 25> *
| 26>
| 27>                          ****END OF INPUT****
 Total Charge           Charge          ....    0
 Multiplicity           Mult            ....    1
 Number of Electrons    NEL             ....   30
Dispersion correction           -0.005388294
FINAL SINGLE POINT ENERGY      -155.684645763773
Dispersion correction            ... done
Dispersion correction           -0.005358659
FINAL SINGLE POINT ENERGY      -155.686027380345
Dispersion correction            ... done
Dispersion correction           -0.005355596
FINAL SINGLE POINT ENERGY      -155.686054131174
Dispersion correction            ... done
                    ***********************HURRAY********************

CARTESIAN COORDINATES (ANGSTROEM)
---------------------------------
  C      1.844973   -0.094180   -0.108990
  C      0.609673    0.385912    0.092292
  C     -0.609671   -0.385978   -0.092330
  C     -1.844924    0.094162    0.108964
  H      2.733066    0.523622    0.042735
  H      2.006559   -1.127064   -0.433819
  H      0.482368    1.425737    0.417624
  H     -0.482414   -1.425811   -0.417656
  H     -2.733153   -0.523462   -0.042710
  H     -2.006478    1.127062    0.433790

 Multiplicity           Mult            ....    1
 Number of Electrons    NEL             ....   30
 Basis Dimension        Dim             ....   86

ORBITAL ENERGIES
----------------

  NO   OCC          E(Eh)            E(eV)
   0   2.0000     -10.242729      -278.7188
   1   2.0000     -10.242542      -278.7137
   2   2.0000     -10.236389      -278.5463
   3   2.0000     -10.236361      -278.5455
   4   2.0000      -0.823036       -22.3960
   5   2.0000      -0.748440       -20.3661
   6   2.0000      -0.617056       -16.7909
   7   2.0000      -0.562979       -15.3194
   8   2.0000      -0.480229       -13.0677
   9   2.0000      -0.476041       -12.9537
  10   2.0000      -0.407231       -11.0813
  11   2.0000      -0.396608       -10.7923
  12   2.0000      -0.356149        -9.6913
  13   2.0000      -0.341529        -9.2935
  14   2.0000      -0.247644        -6.7387
  15   0.0000      -0.027883        -0.7587
  16   0.0000       0.078756         2.1431
  17   0.0000       0.089165         2.4263
  18   0.0000       0.098878         2.6906
  19   0.0000       0.106178         2.8892

MULLIKEN ATOMIC CHARGES
-----------------------
   0 C :   -0.079231
   1 C :   -0.050780
   2 C :   -0.050747
   3 C :   -0.079251
   4 H :    0.054885
   5 H :    0.047057
   6 H :    0.028064
   7 H :    0.028064
   8 H :    0.054883
   9 H :    0.047055
Sum of atomic charges:   -0.0000000

LOEWDIN ATOMIC CHARGES
----------------------
   0 C :   -0.056697
   1 C :   -0.037994
   2 C :   -0.037998
   3 C :   -0.056691
   4 H :    0.031714
   5 H :    0.028702
   6 H :    0.034277
   7 H :    0.034278
   8 H :    0.031710
   9 H :    0.028700

  Mayer bond orders larger than 0.100000
B(  0-C ,  1-C ) :   1.9095 B(  0-C ,  3-C ) :   0.1258 B(  0-C ,  4-H ) :   0.9541
B(  0-C ,  5-H ) :   0.9578 B(  1-C ,  2-C ) :   1.1105 B(  1-C ,  6-H ) :   0.9628
B(  2-C ,  3-C ) :   1.9095 B(  2-C ,  7-H ) :   0.9628 B(  3-C ,  8-H ) :   0.9541
B(  3-C ,  9-H ) :   0.9578

Dispersion correction           -0.005353983
FINAL SINGLE POINT ENERGY      -155.686069419786

DIPOLE MOMENT
-------------
                                X             Y             Z
Electronic contribution:      0.00007      -0.00017      -0.00005
Nuclear contribution   :     -0.00011       0.00018       0.00005
                        -----------------------------------------
Total Dipole Moment    :     -0.00004       0.00001       0.00000
                        -----------------------------------------
Magnitude (a.u.)       :      0.00004
Magnitude (Debye)      :      0.00010

Rotational constants in cm-1:     1.401217     0.147180     0.133190
Rotational constants in MHz : 42007.424795  4412.339520  3992.933258

                             ****ORCA TERMINATED NORMALLY****
TOTAL RUN TIME: 0 days 0 hours 0 minutes 53 seconds 604 msec
