   * xtb version 6.6.1 (8d0f1dd) compiled by 'conda@1efc2f54142f' on 2023-08-01
          program call               : /home/avcopan/code/other/saddle-search-practice/.pixi/envs/default/bin/xtb r0_C4H6_conf0_opt_xtb.xyz --chrg 0 --uhf 0 --opt

   ID    Z sym.   atoms
    1    6 C      1-4
    2    1 H      5-10

          :  Hamiltonian                  GFN2-xTB          :
 * total energy  :   -11.5510204 Eh     change       -0.2533085E-11 Eh
 * total energy  :   -11.5523644 Eh     change       -0.1344068E-02 Eh
 * total energy  :   -11.5526753 Eh     change       -0.3108436E-03 Eh
 * total energy  :   -11.5526976 Eh     change       -0.2233004E-04 Eh
 * total energy  :   -11.5527012 Eh     change       -0.3603683E-05 Eh
   *** GEOMETRY OPTIMIZATION CONVERGED AFTER 5 ITERATIONS ***

 final structure:
================
10
 xtb: 6.6.1 (8d0f1dd)
C            1.82600898502573       -0.09302642597686       -0.10726223665909
C            0.60403585922318        0.38747690569414        0.09330056561142
C           -0.60368536175470       -0.38783020460112       -0.09345576732853
C           -1.82581865535050        0.09292642286876        0.10714540656900
H            2.70787741874130        0.50745517552319        0.03852568948015
H            1.98711570316400       -1.10981924761654       -0.42778335266448
H            0.46687444394923        1.41243495460395        0.41418864834702
H           -0.46665050167637       -1.41287391631062       -0.41436365223377
H           -2.70870648420618       -0.50619533643528       -0.03805558814394
H           -1.98705140711568        1.10945167225038        0.42766028702221

          :  Hamiltonian                  GFN2-xTB          :
         :: total energy             -11.552701218101 Eh    ::
         :: gradient norm              0.000789865435 Eh/a0 ::
         :: HOMO-LUMO gap              3.785509150140 eV    ::
         :: SCC energy               -11.784874242811 Eh    ::
         :: -> dispersion             -0.004407795344 Eh    ::
         :: repulsion energy           0.232173182073 Eh    ::

    * Orbital Energies and Occupations

         #    Occupation            Energy/Eh            Energy/eV
      -------------------------------------------------------------
         1        2.0000           -0.6245213             -16.9941
         2        2.0000           -0.6062403             -16.4966
         3        2.0000           -0.5610544             -15.2671
         4        2.0000           -0.5436853             -14.7944
         5        2.0000           -0.5004900             -13.6190
         6        2.0000           -0.4998176             -13.6007
         7        2.0000           -0.4531314             -12.3303
         8        2.0000           -0.4508393             -12.2680
         9        2.0000           -0.4493780             -12.2282
        10        2.0000           -0.4255352             -11.5794
        11        2.0000           -0.3869101             -10.5284 (HOMO)
        12                         -0.2477952              -6.7429 (LUMO)
        13                         -0.1417459              -3.8571
        14                          0.1156378               3.1467
        15                          0.1265004               3.4423
        16                          0.1741184               4.7380
        17                          0.2002302               5.4485
        18                          0.2116722               5.7599
        19                          0.3719704              10.1218
        20                          0.4484990              12.2043
        21                          0.5527049              15.0399
        22                          0.6752405              18.3742
      -------------------------------------------------------------
                  HL-Gap            0.1391149 Eh            3.7855 eV

     #   Z          covCN         q      C6AA      α(0)
     1   6 C        2.841    -0.086    30.143     8.998
     2   6 C        2.894    -0.025    28.635     8.774
     3   6 C        2.894    -0.025    28.635     8.774
     4   6 C        2.841    -0.086    30.143     8.998
     5   1 H        0.926     0.036     2.503     2.474
     6   1 H        0.926     0.039     2.460     2.453
     7   1 H        0.925     0.036     2.500     2.472
     8   1 H        0.925     0.036     2.500     2.472
     9   1 H        0.926     0.036     2.504     2.474
    10   1 H        0.926     0.039     2.460     2.453

Wiberg/Mayer (AO) data.
largest (>0.10) Wiberg bond orders for each atom

     #   Z sym  total        # sym  WBO       # sym  WBO       # sym  WBO
 ---------------------------------------------------------------------------
     1   6 C    3.992 --     2 C    1.888     5 H    0.979     6 H    0.976
                             4 C    0.144
     2   6 C    3.992 --     1 C    1.888     3 C    1.118     7 H    0.964
     3   6 C    3.992 --     4 C    1.888     2 C    1.118     8 H    0.964
     4   6 C    3.992 --     3 C    1.888     9 H    0.979    10 H    0.976
                             1 C    0.144
     5   1 H    0.998 --     1 C    0.979
     6   1 H    0.998 --     1 C    0.976
     7   1 H    0.999 --     2 C    0.964
     8   1 H    0.999 --     3 C    0.964
     9   1 H    0.998 --     4 C    0.979
    10   1 H    0.998 --     4 C    0.976
 ---------------------------------------------------------------------------

molecular dipole:
                 x           y           z       tot (Debye)
 q only:        0.000       0.000       0.000
   full:        0.000       0.000       0.000       0.000

           -------------------------------------------------
          | TOTAL ENERGY              -11.552701218101 Eh   |
          | GRADIENT NORM               0.000789865435 Eh/α |
          | HOMO-LUMO GAP               3.785509150140 eV   |
           -------------------------------------------------

 * finished run on 2025/05/23 at 11:11:30.456
