                         Program Version 5.0.4 -  RELEASE  -
|  1> ! LooseOpt PBE0 RIJCOSX D3BJ def2-SVP def2/J
|  2> %geom MaxIter 10 end
|  3> %output
|  4> xyzfile=True
|  5> end
|  6> %scf
|  7> maxiter 250
|  8> end
|  9> %output
| 10> Print[P_Hirshfeld] = 1
| 11> end
| 12> % maxcore
| 13> 4000
| 14> *xyz 0 1
| 15> C    0.65697228   0.03880876   0.01028493
| 16> C   -0.65696439  -0.03875739  -0.01019226
| 17> H    1.28024168  -0.83993061   0.03992055
| 18> H    1.17349930   0.98466479  -0.00124009
| 19> H   -1.28030427   0.83970422  -0.04003970
| 20> H   -1.17344460  -0.98448977   0.00136657
| 21> *
| 22>
| 23>                          ****END OF INPUT****
 Total Charge           Charge          ....    0
 Multiplicity           Mult            ....    1
 Number of Electrons    NEL             ....   16
Dispersion correction           -0.001904160
FINAL SINGLE POINT ENERGY       -78.426516404637
Dispersion correction            ... done
Dispersion correction           -0.001899366
FINAL SINGLE POINT ENERGY       -78.427514085108
Dispersion correction            ... done
                    ***********************HURRAY********************

CARTESIAN COORDINATES (ANGSTROEM)
---------------------------------
  C      0.663737    0.039180    0.010404
  C     -0.663709   -0.039160   -0.010370
  H      1.294388   -0.854925    0.040547
  H      1.185684    1.001167   -0.001443
  H     -1.294445    0.854888   -0.040525
  H     -1.185656   -1.001151    0.001489

 Multiplicity           Mult            ....    1
 Number of Electrons    NEL             ....   16
 Basis Dimension        Dim             ....   48

ORBITAL ENERGIES
----------------

  NO   OCC          E(Eh)            E(eV)
   0   2.0000     -10.236251      -278.5425
   1   2.0000     -10.235462      -278.5211
   2   2.0000      -0.773706       -21.0536
   3   2.0000      -0.587689       -15.9918
   4   2.0000      -0.479169       -13.0389
   5   2.0000      -0.432479       -11.7684
   6   2.0000      -0.362533        -9.8650
   7   2.0000      -0.286817        -7.8047
   8   0.0000       0.013875         0.3776
   9   0.0000       0.096412         2.6235
  10   0.0000       0.114590         3.1182
  11   0.0000       0.128271         3.4904
  12   0.0000       0.200321         5.4510

MULLIKEN ATOMIC CHARGES
-----------------------
   0 C :   -0.115648
   1 C :   -0.115684
   2 H :    0.057938
   3 H :    0.057729
   4 H :    0.057938
   5 H :    0.057727
Sum of atomic charges:   -0.0000000

LOEWDIN ATOMIC CHARGES
----------------------
   0 C :   -0.060546
   1 C :   -0.060559
   2 H :    0.030298
   3 H :    0.030257
   4 H :    0.030295
   5 H :    0.030255

  Mayer bond orders larger than 0.100000
B(  0-C ,  1-C ) :   2.0648 B(  0-C ,  2-H ) :   0.9635 B(  0-C ,  3-H ) :   0.9635
B(  1-C ,  4-H ) :   0.9635 B(  1-C ,  5-H ) :   0.9635

Dispersion correction           -0.001899316
FINAL SINGLE POINT ENERGY       -78.427523572590

DIPOLE MOMENT
-------------
                                X             Y             Z
Electronic contribution:      0.00008       0.00005      -0.00000
Nuclear contribution   :     -0.00007      -0.00005       0.00000
                        -----------------------------------------
Total Dipole Moment    :      0.00001      -0.00000       0.00000
                        -----------------------------------------
Magnitude (a.u.)       :      0.00001
Magnitude (Debye)      :      0.00002

Rotational constants in cm-1:     4.835481     1.000753     0.829151
Rotational constants in MHz : 144964.082046 30001.819681 24857.336342

                             ****ORCA TERMINATED NORMALLY****
TOTAL RUN TIME: 0 days 0 hours 0 minutes 12 seconds 417 msec
