   * xtb version 6.6.1 (8d0f1dd) compiled by 'conda@1efc2f54142f' on 2023-08-01
          program call               : /home/avcopan/code/other/saddle-search-practice/.pixi/envs/default/bin/xtb r1_C2H4_conf0_opt_xtb.xyz --chrg 0 --uhf 0 --opt

   ID    Z sym.   atoms
    1    6 C      1, 2
    2    1 H      3-6

          :  Hamiltonian                  GFN2-xTB          :
 * total energy  :    -6.2695655 Eh     change       -0.6901146E-12 Eh
 * total energy  :    -6.2710206 Eh     change       -0.1455070E-02 Eh
 * total energy  :    -6.2712519 Eh     change       -0.2312907E-03 Eh
 * total energy  :    -6.2712601 Eh     change       -0.8201794E-05 Eh
 * total energy  :    -6.2712600 Eh     change        0.2339260E-07 Eh
 * total energy  :    -6.2712598 Eh     change        0.1887693E-06 Eh
 * total energy  :    -6.2712605 Eh     change       -0.6859508E-06 Eh
   *** GEOMETRY OPTIMIZATION CONVERGED AFTER 7 ITERATIONS ***

 final structure:
================
6
 xtb: 6.6.1 (8d0f1dd)
C            0.65697227665412        0.03880876264690        0.01028493137057
C           -0.65696438922169       -0.03875739022092       -0.01019225789716
H            1.28024167860633       -0.83993061118436        0.03992054561195
H            1.17349930443325        0.98466479407664       -0.00124008613021
H           -1.28030427094256        0.83970421752305       -0.04003970256010
H           -1.17344459952945       -0.98448977284130        0.00136656960494

          :  Hamiltonian                  GFN2-xTB          :
         :: total energy              -6.271260529719 Eh    ::
         :: gradient norm              0.000252830235 Eh/a0 ::
         :: HOMO-LUMO gap              5.677179870743 eV    ::
         :: SCC energy                -6.398849940279 Eh    ::
         :: -> dispersion             -0.001449517750 Eh    ::
         :: repulsion energy           0.127589376823 Eh    ::

    * Orbital Energies and Occupations

         #    Occupation            Energy/Eh            Energy/eV
      -------------------------------------------------------------
         1        2.0000           -0.6096665             -16.5899
         2        2.0000           -0.5496480             -14.9567
         3        2.0000           -0.5062659             -13.7762
         4        2.0000           -0.4715475             -12.8315
         5        2.0000           -0.4313818             -11.7385
         6        2.0000           -0.4159482             -11.3185 (HOMO)
         7                         -0.2073157              -5.6413 (LUMO)
         8                          0.1418089               3.8588
         9                          0.1585375               4.3140
        10                          0.2038847               5.5480
        11                          0.4398749              11.9696
        12                          0.6054639              16.4755
      -------------------------------------------------------------
                  HL-Gap            0.2086325 Eh            5.6772 eV

     #   Z          covCN         q      C6AA      α(0)
     1   6 C        2.832    -0.077    29.912     8.962
     2   6 C        2.832    -0.077    29.913     8.962
     3   1 H        0.926     0.038     2.469     2.457
     4   1 H        0.926     0.038     2.469     2.457
     5   1 H        0.926     0.038     2.469     2.457
     6   1 H        0.926     0.038     2.469     2.457

Wiberg/Mayer (AO) data.
largest (>0.10) Wiberg bond orders for each atom

     #   Z sym  total        # sym  WBO       # sym  WBO       # sym  WBO
 ---------------------------------------------------------------------------
     1   6 C    3.993 --     2 C    2.037     3 H    0.977     4 H    0.977
     2   6 C    3.993 --     1 C    2.037     5 H    0.977     6 H    0.977
     3   1 H    0.999 --     1 C    0.977
     4   1 H    0.999 --     1 C    0.977
     5   1 H    0.999 --     2 C    0.977
     6   1 H    0.999 --     2 C    0.977
 ---------------------------------------------------------------------------

molecular dipole:
                 x           y           z       tot (Debye)
 q only:       -0.000       0.000      -0.000
   full:       -0.000      -0.000      -0.000       0.000

           -------------------------------------------------
          | TOTAL ENERGY               -6.271260529719 Eh   |
          | GRADIENT NORM               0.000252830235 Eh/α |
          | HOMO-LUMO GAP               5.677179870743 eV   |
           -------------------------------------------------

 * finished run on 2025/05/23 at 11:12:24.675
