                         Program Version 5.0.4 -  RELEASE  -
|  1> ! Opt PBE0 RIJCOSX D3BJ def2-SVP def2/J
|  2> %output
|  3> xyzfile=True
|  4> end
|  5> %scf
|  6> maxiter 250
|  7> end
|  8> %output
|  9> Print[P_Hirshfeld] = 1
| 10> end
| 11> % maxcore
| 12> 4000
| 13> *xyz 0 1
| 14> C   -0.89380323  -1.25315111  -0.18320472
| 15> C    0.42504704  -1.46844125  -0.25660055
| 16> C    1.44689244  -0.37749388  -0.12279767
| 17> C    0.82363444   1.01001237  -0.23764078
| 18> C   -0.46040900   1.09938718   0.57885774
| 19> C   -1.49525790   0.09698633   0.07747852
| 20> H   -1.58236842  -2.09500479  -0.31513341
| 21> H    0.79344246  -2.48628128  -0.42542907
| 22> H    2.23487613  -0.51068824  -0.88380998
| 23> H    1.96592966  -0.48348621   0.84944321
| 24> H    0.58904558   1.21380782  -1.29764612
| 25> H    1.54428638   1.78160992   0.07625672
| 26> H   -0.87224477   2.12065117   0.55439284
| 27> H   -0.22823991   0.88076705   1.63648736
| 28> H   -2.32274029   0.00166095   0.80134039
| 29> H   -1.96799064   0.46956398  -0.85179446
| 30> *
| 31>
| 32>                          ****END OF INPUT****
 Total Charge           Charge          ....    0
 Multiplicity           Mult            ....    1
 Number of Electrons    NEL             ....   46
Dispersion correction           -0.011880722
FINAL SINGLE POINT ENERGY      -234.206947777292
Dispersion correction            ... done
Dispersion correction           -0.011880851
FINAL SINGLE POINT ENERGY      -234.206949364565
Dispersion correction            ... done
                    ***********************HURRAY********************

CARTESIAN COORDINATES (ANGSTROEM)
---------------------------------
  C     -0.893538   -1.252710   -0.183404
  C      0.424941   -1.468046   -0.256251
  C      1.447342   -0.377893   -0.122577
  C      0.823789    1.009859   -0.237559
  C     -0.460608    1.099309    0.578814
  C     -1.495777    0.096854    0.077125
  H     -1.581453   -2.094984   -0.315933
  H      0.792523   -2.486255   -0.424543
  H      2.233656   -0.510735   -0.885359
  H      1.967721   -0.484076    0.848684
  H      0.590563    1.214774   -1.297382
  H      1.544070    1.780759    0.078896
  H     -0.872192    2.120611    0.551618
  H     -0.229440    0.882248    1.636711
  H     -2.321724    0.000774    0.802622
  H     -1.969774    0.469412   -0.851259

 Multiplicity           Mult            ....    1
 Number of Electrons    NEL             ....   46
 Basis Dimension        Dim             ....  134

ORBITAL ENERGIES
----------------

  NO   OCC          E(Eh)            E(eV)
   0   2.0000     -10.229352      -278.3548
   1   2.0000     -10.229326      -278.3541
   2   2.0000     -10.226134      -278.2673
   3   2.0000     -10.225996      -278.2635
   4   2.0000     -10.224949      -278.2350
   5   2.0000     -10.224171      -278.2138
   6   2.0000      -0.849885       -23.1265
   7   2.0000      -0.754620       -20.5343
   8   2.0000      -0.751835       -20.4585
   9   2.0000      -0.628117       -17.0919
  10   2.0000      -0.607490       -16.5306
  11   2.0000      -0.518070       -14.0974
  12   2.0000      -0.505972       -13.7682
  13   2.0000      -0.454137       -12.3577
  14   2.0000      -0.436371       -11.8743
  15   2.0000      -0.419184       -11.4066
  16   2.0000      -0.400833       -10.9072
  17   2.0000      -0.390908       -10.6371
  18   2.0000      -0.387790       -10.5523
  19   2.0000      -0.333630        -9.0785
  20   2.0000      -0.325979        -8.8703
  21   2.0000      -0.313921        -8.5422
  22   2.0000      -0.249762        -6.7964
  23   0.0000       0.029290         0.7970
  24   0.0000       0.066609         1.8125
  25   0.0000       0.100234         2.7275
  26   0.0000       0.106128         2.8879
  27   0.0000       0.110919         3.0182

MULLIKEN ATOMIC CHARGES
-----------------------
   0 C :   -0.108561
   1 C :   -0.108315
   2 C :    0.001863
   3 C :   -0.072735
   4 C :   -0.072489
   5 C :    0.002057
   6 H :    0.022993
   7 H :    0.022764
   8 H :    0.040138
   9 H :    0.045087
  10 H :    0.038274
  11 H :    0.032753
  12 H :    0.032625
  13 H :    0.038319
  14 H :    0.040140
  15 H :    0.045088
Sum of atomic charges:    0.0000000

LOEWDIN ATOMIC CHARGES
----------------------
   0 C :   -0.053040
   1 C :   -0.052976
   2 C :   -0.051629
   3 C :   -0.046169
   4 C :   -0.046139
   5 C :   -0.051619
   6 H :    0.027434
   7 H :    0.027393
   8 H :    0.034107
   9 H :    0.034979
  10 H :    0.027333
  11 H :    0.026963
  12 H :    0.026950
  13 H :    0.027335
  14 H :    0.034101
  15 H :    0.034977

  Mayer bond orders larger than 0.100000
B(  0-C ,  1-C ) :   1.9482 B(  0-C ,  5-C ) :   1.0271 B(  0-C ,  6-H ) :   0.9639
B(  1-C ,  2-C ) :   1.0269 B(  1-C ,  7-H ) :   0.9639 B(  2-C ,  3-C ) :   1.0759
B(  2-C ,  8-H ) :   0.9382 B(  2-C ,  9-H ) :   0.9264 B(  3-C ,  4-C ) :   1.0676
B(  3-C , 10-H ) :   0.9507 B(  3-C , 11-H ) :   0.9449 B(  4-C ,  5-C ) :   1.0756
B(  4-C , 12-H ) :   0.9449 B(  4-C , 13-H ) :   0.9507 B(  5-C , 14-H ) :   0.9382
B(  5-C , 15-H ) :   0.9264

Dispersion correction           -0.011880239
FINAL SINGLE POINT ENERGY      -234.206950453400

DIPOLE MOMENT
-------------
                                X             Y             Z
Electronic contribution:     -0.31888      -1.85066      -0.29849
Nuclear contribution   :      0.33776       1.95907       0.31589
                        -----------------------------------------
Total Dipole Moment    :      0.01887       0.10841       0.01741
                        -----------------------------------------
Magnitude (a.u.)       :      0.11140
Magnitude (Debye)      :      0.28317

Rotational constants in cm-1:     0.158721     0.152082     0.085600
Rotational constants in MHz :  4758.349747  4559.297051  2566.210063

                             ****ORCA TERMINATED NORMALLY****
TOTAL RUN TIME: 0 days 0 hours 1 minutes 51 seconds 332 msec
