                         Program Version 5.0.4 -  RELEASE  -
|  1> ! Opt PBE0 RIJCOSX D3BJ def2-SVP def2/J
|  2> %output
|  3> xyzfile=True
|  4> end
|  5> %scf
|  6> maxiter 250
|  7> end
|  8> %output
|  9> Print[P_Hirshfeld] = 1
| 10> end
| 11> % maxcore
| 12> 4000
| 13> *xyz 0 1
| 14> C    1.84497305  -0.09418047  -0.10898992
| 15> C    0.60967290   0.38591186   0.09229225
| 16> C   -0.60967077  -0.38597778  -0.09233048
| 17> C   -1.84492392   0.09416235   0.10896393
| 18> H    2.73306646   0.52362180   0.04273539
| 19> H    2.00655921  -1.12706402  -0.43381868
| 20> H    0.48236791   1.42573719   0.41762408
| 21> H   -0.48241388  -1.42581083  -0.41765622
| 22> H   -2.73315287  -0.52346226  -0.04271035
| 23> H   -2.00647809   1.12706215   0.43379000
| 24> *
| 25>
| 26>                          ****END OF INPUT****
 Total Charge           Charge          ....    0
 Multiplicity           Mult            ....    1
 Number of Electrons    NEL             ....   30
Dispersion correction           -0.005353983
FINAL SINGLE POINT ENERGY      -155.686069419562
Dispersion correction            ... done
                    ***********************HURRAY********************

CARTESIAN COORDINATES (ANGSTROEM)
---------------------------------
  C      1.844410   -0.094266   -0.108974
  C      0.609491    0.385791    0.092262
  C     -0.609484   -0.385839   -0.092295
  C     -1.844381    0.094256    0.108948
  H      2.732161    0.523956    0.042872
  H      2.005874   -1.127078   -0.433800
  H      0.482649    1.425615    0.417572
  H     -0.482674   -1.425668   -0.417601
  H     -2.732225   -0.523844   -0.042858
  H     -2.005822    1.127076    0.433774

 Multiplicity           Mult            ....    1
 Number of Electrons    NEL             ....   30
 Basis Dimension        Dim             ....   86

ORBITAL ENERGIES
----------------

  NO   OCC          E(Eh)            E(eV)
   0   2.0000     -10.242611      -278.7156
   1   2.0000     -10.242422      -278.7105
   2   2.0000     -10.236303      -278.5440
   3   2.0000     -10.236275      -278.5432
   4   2.0000      -0.823171       -22.3996
   5   2.0000      -0.748527       -20.3685
   6   2.0000      -0.617040       -16.7905
   7   2.0000      -0.562996       -15.3199
   8   2.0000      -0.480221       -13.0675
   9   2.0000      -0.476154       -12.9568
  10   2.0000      -0.407178       -11.0799
  11   2.0000      -0.396615       -10.7925
  12   2.0000      -0.356165        -9.6918
  13   2.0000      -0.341625        -9.2961
  14   2.0000      -0.247669        -6.7394
  15   0.0000      -0.027806        -0.7566
  16   0.0000       0.078876         2.1463
  17   0.0000       0.089153         2.4260
  18   0.0000       0.098877         2.6906
  19   0.0000       0.106182         2.8894

MULLIKEN ATOMIC CHARGES
-----------------------
   0 C :   -0.079087
   1 C :   -0.050695
   2 C :   -0.050675
   3 C :   -0.079103
   4 H :    0.054811
   5 H :    0.046989
   6 H :    0.027981
   7 H :    0.027981
   8 H :    0.054811
   9 H :    0.046988
Sum of atomic charges:   -0.0000000

LOEWDIN ATOMIC CHARGES
----------------------
   0 C :   -0.056651
   1 C :   -0.038022
   2 C :   -0.038024
   3 C :   -0.056647
   4 H :    0.031709
   5 H :    0.028688
   6 H :    0.034277
   7 H :    0.034278
   8 H :    0.031707
   9 H :    0.028686

  Mayer bond orders larger than 0.100000
B(  0-C ,  1-C ) :   1.9097 B(  0-C ,  3-C ) :   0.1258 B(  0-C ,  4-H ) :   0.9540
B(  0-C ,  5-H ) :   0.9578 B(  1-C ,  2-C ) :   1.1105 B(  1-C ,  6-H ) :   0.9628
B(  2-C ,  3-C ) :   1.9097 B(  2-C ,  7-H ) :   0.9628 B(  3-C ,  8-H ) :   0.9540
B(  3-C ,  9-H ) :   0.9578

Dispersion correction           -0.005354837
FINAL SINGLE POINT ENERGY      -155.686070657468

DIPOLE MOMENT
-------------
                                X             Y             Z
Electronic contribution:      0.00005      -0.00011      -0.00004
Nuclear contribution   :     -0.00008       0.00012       0.00004
                        -----------------------------------------
Total Dipole Moment    :     -0.00002       0.00001       0.00000
                        -----------------------------------------
Magnitude (a.u.)       :      0.00002
Magnitude (Debye)      :      0.00006

Rotational constants in cm-1:     1.401460     0.147269     0.133265
Rotational constants in MHz : 42014.712804  4415.020667  3995.194710

                             ****ORCA TERMINATED NORMALLY****
TOTAL RUN TIME: 0 days 0 hours 0 minutes 23 seconds 898 msec
