                         Program Version 5.0.4 -  RELEASE  -
|  1> ! Opt PBE0 RIJCOSX D3BJ def2-SVP def2/J
|  2> %output
|  3> xyzfile=True
|  4> end
|  5> %scf
|  6> maxiter 250
|  7> end
|  8> %output
|  9> Print[P_Hirshfeld] = 1
| 10> end
| 11> % maxcore
| 12> 4000
| 13> *xyz 0 1
| 14> C    0.66373722   0.03918017   0.01040352
| 15> C   -0.66370927  -0.03915962  -0.01037048
| 16> H    1.29438820  -0.85492546   0.04054664
| 17> H    1.18568448   1.00116740  -0.00144274
| 18> H   -1.29444511   0.85488825  -0.04052547
| 19> H   -1.18565552  -1.00115074   0.00148853
| 20> *
| 21>
| 22>                          ****END OF INPUT****
 Total Charge           Charge          ....    0
 Multiplicity           Mult            ....    1
 Number of Electrons    NEL             ....   16
Dispersion correction           -0.001899316
FINAL SINGLE POINT ENERGY       -78.427523573532
Dispersion correction            ... done
Dispersion correction           -0.001899429
FINAL SINGLE POINT ENERGY       -78.427526190587
Dispersion correction            ... done
Dispersion correction           -0.001899643
FINAL SINGLE POINT ENERGY       -78.427528125419
Dispersion correction            ... done
                    ***********************HURRAY********************

CARTESIAN COORDINATES (ANGSTROEM)
---------------------------------
  C      0.664042    0.039183    0.010412
  C     -0.664041   -0.039181   -0.010379
  H      1.292270   -0.856342    0.040547
  H      1.183364    1.002327   -0.001515
  H     -1.292274    0.856341   -0.040512
  H     -1.183361   -1.002327    0.001547

 Multiplicity           Mult            ....    1
 Number of Electrons    NEL             ....   16
 Basis Dimension        Dim             ....   48

ORBITAL ENERGIES
----------------

  NO   OCC          E(Eh)            E(eV)
   0   2.0000     -10.236207      -278.5413
   1   2.0000     -10.235423      -278.5200
   2   2.0000      -0.773682       -21.0530
   3   2.0000      -0.587465       -15.9857
   4   2.0000      -0.479640       -13.0517
   5   2.0000      -0.431811       -11.7502
   6   2.0000      -0.362959        -9.8766
   7   2.0000      -0.286694        -7.8014
   8   0.0000       0.013798         0.3755
   9   0.0000       0.096201         2.6178
  10   0.0000       0.114722         3.1217
  11   0.0000       0.128536         3.4976
  12   0.0000       0.200291         5.4502

MULLIKEN ATOMIC CHARGES
-----------------------
   0 C :   -0.115702
   1 C :   -0.115696
   2 H :    0.057957
   3 H :    0.057743
   4 H :    0.057956
   5 H :    0.057742
Sum of atomic charges:   -0.0000000

LOEWDIN ATOMIC CHARGES
----------------------
   0 C :   -0.060534
   1 C :   -0.060529
   2 H :    0.030287
   3 H :    0.030245
   4 H :    0.030286
   5 H :    0.030245

  Mayer bond orders larger than 0.100000
B(  0-C ,  1-C ) :   2.0649 B(  0-C ,  2-H ) :   0.9635 B(  0-C ,  3-H ) :   0.9635
B(  1-C ,  4-H ) :   0.9635 B(  1-C ,  5-H ) :   0.9635

Dispersion correction           -0.001899653
FINAL SINGLE POINT ENERGY       -78.427528125713

DIPOLE MOMENT
-------------
                                X             Y             Z
Electronic contribution:     -0.00000       0.00000      -0.00000
Nuclear contribution   :     -0.00000      -0.00000       0.00000
                        -----------------------------------------
Total Dipole Moment    :     -0.00001      -0.00000      -0.00000
                        -----------------------------------------
Magnitude (a.u.)       :      0.00001
Magnitude (Debye)      :      0.00002

Rotational constants in cm-1:     4.821946     1.001475     0.829248
Rotational constants in MHz : 144558.311645 30023.457621 24860.215229

                             ****ORCA TERMINATED NORMALLY****
TOTAL RUN TIME: 0 days 0 hours 0 minutes 13 seconds 300 msec
